
     Program PWSCF v.6.3 starts on 11Jan2020 at 20:16:29 

     This program is part of the open-source Quantum ESPRESSO suite
     for quantum simulation of materials; please cite
         "P. Giannozzi et al., J. Phys.:Condens. Matter 21 395502 (2009);
         "P. Giannozzi et al., J. Phys.:Condens. Matter 29 465901 (2017);
          URL http://www.quantum-espresso.org", 
     in publications or presentations arising from this work. More details at
     http://www.quantum-espresso.org/quote

     Parallel version (MPI), running on     1 processors

     MPI processes distributed on     1 nodes
     Waiting for input...
     Reading input from standard input

     Current dimensions of program PWSCF are:
     Max number of different atomic species (ntypx) = 10
     Max number of k-points (npk) =  40000
     Max angular momentum in pseudopotentials (lmaxx) =  3

     Subspace diagonalization in iterative solution of the eigenvalue problem:
     a serial algorithm will be used


     G-vector sticks info
     --------------------
     sticks:   dense  smooth     PW     G-vecs:    dense   smooth      PW
     Sum         211     169     61                10409     7409    1501



     bravais-lattice index     =            4
     lattice parameter (alat)  =       4.6020  a.u.
     unit-cell volume          =     337.6218 (a.u.)^3
     number of atoms/cell      =            2
     number of atomic types    =            1
     number of electrons       =         8.00
     number of Kohn-Sham states=            8
     kinetic-energy cutoff     =      30.0000  Ry
     charge density cutoff     =     150.0000  Ry
     convergence threshold     =      1.0E-08
     mixing beta               =       0.7000
     number of iterations used =            8  plain     mixing
     Exchange-correlation      =  SLA  PZ   NOGX NOGC ( 1  1  0  0 0 0)

     celldm(1)=   4.602000  celldm(2)=   0.000000  celldm(3)=   4.000000
     celldm(4)=   0.000000  celldm(5)=   0.000000  celldm(6)=   0.000000

     crystal axes: (cart. coord. in units of alat)
               a(1) = (   1.000000   0.000000   0.000000 )  
               a(2) = (  -0.500000   0.866025   0.000000 )  
               a(3) = (   0.000000   0.000000   4.000000 )  

     reciprocal axes: (cart. coord. in units 2 pi/alat)
               b(1) = (  1.000000  0.577350 -0.000000 )  
               b(2) = (  0.000000  1.154701  0.000000 )  
               b(3) = (  0.000000 -0.000000  0.250000 )  


     PseudoPot. # 1 for C  read from file:
     ./C.pz-van_ak.UPF
     MD5 check sum: d40b4001ce20bbb1180eafeb54b8064c
     Pseudo is Ultrasoft, Zval =  4.0
     Generated by new atomic code, or converted to UPF format
     Using radial grid of  721 points,  4 beta functions with: 
                l(1) =   0
                l(2) =   0
                l(3) =   1
                l(4) =   1
     Q(r) pseudized with  8 coefficients,  rinner =    0.800   0.800   0.800


     atomic species   valence    mass     pseudopotential
        C              4.00    12.01070     C ( 1.00)

     24 Sym. Ops., with inversion, found (12 have fractional translation)



   Cartesian axes

     site n.     atom                  positions (alat units)
         1           C   tau(   1) = (   0.0000000   0.0000000   0.0000000  )
         2           C   tau(   2) = (   0.0000000   0.5773503   0.0000000  )

     number of k points=    19  Methfessel-Paxton smearing, width (Ry)=  0.0100
                       cart. coord. in units 2pi/alat
        k(    1) = (   0.0000000   0.0000000   0.0000000), wk =   0.0138889
        k(    2) = (   0.0000000   0.0962250   0.0000000), wk =   0.0833333
        k(    3) = (   0.0000000   0.1924501   0.0000000), wk =   0.0833333
        k(    4) = (   0.0000000   0.2886751   0.0000000), wk =   0.0833333
        k(    5) = (   0.0000000   0.3849002   0.0000000), wk =   0.0833333
        k(    6) = (   0.0000000   0.4811252   0.0000000), wk =   0.0833333
        k(    7) = (   0.0000000  -0.5773503   0.0000000), wk =   0.0416667
        k(    8) = (   0.0833333   0.1443376   0.0000000), wk =   0.0833333
        k(    9) = (   0.0833333   0.2405626   0.0000000), wk =   0.1666667
        k(   10) = (   0.0833333   0.3367877   0.0000000), wk =   0.1666667
        k(   11) = (   0.0833333   0.4330127   0.0000000), wk =   0.1666667
        k(   12) = (   0.0833333   0.5292377   0.0000000), wk =   0.1666667
        k(   13) = (   0.1666667   0.2886751   0.0000000), wk =   0.0833333
        k(   14) = (   0.1666667   0.3849002   0.0000000), wk =   0.1666667
        k(   15) = (   0.1666667   0.4811252   0.0000000), wk =   0.1666667
        k(   16) = (   0.1666667   0.5773503   0.0000000), wk =   0.0833333
        k(   17) = (   0.2500000   0.4330127   0.0000000), wk =   0.0833333
        k(   18) = (   0.2500000   0.5292377   0.0000000), wk =   0.1666667
        k(   19) = (   0.3333333   0.5773503   0.0000000), wk =   0.0277778

     Dense  grid:    10409 G-vectors     FFT dimensions: (  18,  18,  72)

     Smooth grid:     7409 G-vectors     FFT dimensions: (  18,  18,  72)

     Estimated max dynamical RAM per process >      16.57 MB

     Initial potential from superposition of free atoms

     starting charge    7.99993, renormalised to    8.00000

     negative rho (up, down):  4.429E-05 0.000E+00
     Starting wfcs are    8 randomized atomic wfcs

     total cpu time spent up to now is        0.4 secs

     Self-consistent Calculation

     iteration #  1     ecut=    30.00 Ry     beta= 0.70
     Davidson diagonalization with overlap
     ethr =  1.00E-02,  avg # of iterations =  5.3

     negative rho (up, down):  1.325E-04 0.000E+00

     total cpu time spent up to now is        0.9 secs

     total energy              =     -22.80879971 Ry
     Harris-Foulkes estimate   =     -22.96132528 Ry
     estimated scf accuracy    <       0.23501783 Ry

     iteration #  2     ecut=    30.00 Ry     beta= 0.70
     Davidson diagonalization with overlap
     ethr =  2.94E-03,  avg # of iterations =  2.7

     negative rho (up, down):  1.442E-04 0.000E+00

     total cpu time spent up to now is        1.2 secs

     total energy              =     -22.84896936 Ry
     Harris-Foulkes estimate   =     -22.84999615 Ry
     estimated scf accuracy    <       0.00316987 Ry

     iteration #  3     ecut=    30.00 Ry     beta= 0.70
     Davidson diagonalization with overlap
     ethr =  3.96E-05,  avg # of iterations =  5.1

     negative rho (up, down):  1.623E-04 0.000E+00

     total cpu time spent up to now is        1.6 secs

     total energy              =     -22.84943586 Ry
     Harris-Foulkes estimate   =     -22.84944772 Ry
     estimated scf accuracy    <       0.00013337 Ry

     iteration #  4     ecut=    30.00 Ry     beta= 0.70
     Davidson diagonalization with overlap
     ethr =  1.67E-06,  avg # of iterations =  2.7

     negative rho (up, down):  1.644E-04 0.000E+00

     total cpu time spent up to now is        2.0 secs

     total energy              =     -22.84944262 Ry
     Harris-Foulkes estimate   =     -22.84944247 Ry
     estimated scf accuracy    <       0.00000073 Ry

     iteration #  5     ecut=    30.00 Ry     beta= 0.70
     Davidson diagonalization with overlap
     ethr =  9.09E-09,  avg # of iterations =  2.9

     negative rho (up, down):  1.646E-04 0.000E+00

     total cpu time spent up to now is        2.3 secs

     total energy              =     -22.84944326 Ry
     Harris-Foulkes estimate   =     -22.84944326 Ry
     estimated scf accuracy    <       0.00000002 Ry

     iteration #  6     ecut=    30.00 Ry     beta= 0.70
     Davidson diagonalization with overlap
     ethr =  2.33E-10,  avg # of iterations =  1.9

     negative rho (up, down):  1.647E-04 0.000E+00

     total cpu time spent up to now is        2.6 secs

     End of self-consistent calculation

          k = 0.0000 0.0000 0.0000 (   915 PWs)   bands (ev):

   -20.1135  -8.3741  -3.5134  -3.5134   2.6281   4.4310   5.4525   8.0330

          k = 0.0000 0.0962 0.0000 (   905 PWs)   bands (ev):

   -19.9470  -8.1715  -4.1595  -3.8652   2.8560   4.6568   5.6772   8.1112

          k = 0.0000 0.1925 0.0000 (   919 PWs)   bands (ev):

   -19.4493  -7.5691  -5.7968  -4.6870   3.5398   5.3304   6.3513   8.1221

          k = 0.0000 0.2887 0.0000 (   929 PWs)   bands (ev):

   -18.6258  -7.9081  -6.5855  -5.5968   4.6775   6.3780   7.0856   7.4366

          k = 0.0000 0.3849 0.0000 (   933 PWs)   bands (ev):

   -17.4874 -10.1357  -6.3538  -5.2707   4.5609   6.2601   7.6141   8.0483

          k = 0.0000 0.4811 0.0000 (   929 PWs)   bands (ev):

   -16.0582 -12.2739  -6.8415  -3.7880   2.3324   7.3867   8.3179  10.0017

          k = 0.0000-0.5774 0.0000 (   934 PWs)   bands (ev):

   -14.6755 -13.9010  -7.0088  -2.8979   1.1769   7.3227  10.7009  10.7843

          k = 0.0833 0.1443 0.0000 (   924 PWs)   bands (ev):

   -19.6150  -7.7690  -5.1860  -4.5688   3.3120   5.1069   6.1280   8.4102

          k = 0.0833 0.2406 0.0000 (   933 PWs)   bands (ev):

   -18.9544  -6.9748  -6.8986  -5.5985   4.2237   5.9972   7.0289   7.8894

          k = 0.0833 0.3368 0.0000 (   943 PWs)   bands (ev):

   -17.9736  -8.9926  -6.5071  -5.8192   5.5869   5.6263   7.3641   8.2618

          k = 0.0833 0.4330 0.0000 (   943 PWs)   bands (ev):

   -16.6885 -11.1470  -7.1572  -4.3862   3.3331   7.3851   8.2184   9.0946

          k = 0.0833 0.5292 0.0000 (   941 PWs)   bands (ev):

   -15.1533 -13.1484  -7.4935  -3.0154   1.4808   8.0544   9.6404  11.1257

          k = 0.1667 0.2887 0.0000 (   936 PWs)   bands (ev):

   -18.1366  -8.2115  -7.0108  -6.0047   5.3619   6.1129   7.0964   8.1618

          k = 0.1667 0.3849 0.0000 (   950 PWs)   bands (ev):

   -17.0088  -9.9616  -8.0832  -4.7055   4.0954   6.9460   8.5776   9.6999

          k = 0.1667 0.4811 0.0000 (   947 PWs)   bands (ev):

   -15.5997 -11.9207  -8.6571  -3.2205   2.1050   8.9540   9.9447  10.2560

          k = 0.1667 0.5774 0.0000 (   952 PWs)   bands (ev):

   -14.2584 -13.4679  -8.8416  -2.2827   0.9834   9.8605  11.1816  11.2774

          k = 0.2500 0.4330 0.0000 (   940 PWs)   bands (ev):

   -15.7545 -10.9598  -9.6390  -3.3116   2.4366   8.7342   9.8845  11.4849

          k = 0.2500 0.5292 0.0000 (   942 PWs)   bands (ev):

   -14.2811 -12.4398 -10.3449  -1.8684   0.8626  10.3110  10.8835  12.0843

          k = 0.3333 0.5774 0.0000 (   936 PWs)   bands (ev):

   -13.0107 -13.0107 -11.3667  -0.4661  -0.4661   9.9510  12.6056  12.6056

     the Fermi energy is    -0.4661 ev

!    total energy              =     -22.84944326 Ry
     Harris-Foulkes estimate   =     -22.84944326 Ry
     estimated scf accuracy    <          7.1E-10 Ry

     The total energy is the sum of the following terms:

     one-electron contribution =     -89.64903894 Ry
     hartree contribution      =      46.53466683 Ry
     xc contribution           =      -6.97848167 Ry
     ewald contribution        =      27.24348888 Ry
     smearing contrib. (-TS)   =      -0.00007836 Ry

     convergence has been achieved in   6 iterations

     Forces acting on atoms (cartesian axes, Ry/au):

     atom    1 type  1   force =     0.00000000   -0.00000000    0.00000000
     atom    2 type  1   force =     0.00000000    0.00000000    0.00000000

     Total force =     0.000000     Total SCF correction =     0.000000


     Computing stress (Cartesian axis) and pressure

          total   stress  (Ry/bohr**3)                   (kbar)     P=   13.35
   0.00014334   0.00000000   0.00000000         21.09      0.00      0.00
   0.00000000   0.00014334   0.00000000          0.00     21.09      0.00
   0.00000000   0.00000000  -0.00001442          0.00      0.00     -2.12


     Writing output data file graphene.save/

     init_run     :      0.20s CPU      0.30s WALL (       1 calls)
     electrons    :      2.19s CPU      2.25s WALL (       1 calls)
     forces       :      0.02s CPU      0.03s WALL (       1 calls)
     stress       :      0.13s CPU      0.13s WALL (       1 calls)

     Called by init_run:
     wfcinit      :      0.10s CPU      0.13s WALL (       1 calls)
     potinit      :      0.01s CPU      0.01s WALL (       1 calls)
     hinit0       :      0.10s CPU      0.13s WALL (       1 calls)

     Called by electrons:
     c_bands      :      1.75s CPU      1.79s WALL (       6 calls)
     sum_band     :      0.36s CPU      0.37s WALL (       6 calls)
     v_of_rho     :      0.02s CPU      0.02s WALL (       7 calls)
     newd         :      0.04s CPU      0.05s WALL (       7 calls)
     mix_rho      :      0.00s CPU      0.02s WALL (       6 calls)

     Called by c_bands:
     init_us_2    :      0.10s CPU      0.07s WALL (     285 calls)
     cegterg      :      1.66s CPU      1.71s WALL (     114 calls)

     Called by sum_band:
     sum_band:bec :      0.00s CPU      0.00s WALL (     114 calls)
     addusdens    :      0.03s CPU      0.04s WALL (       6 calls)

     Called by *egterg:
     h_psi        :      1.47s CPU      1.55s WALL (     528 calls)
     s_psi        :      0.03s CPU      0.02s WALL (     528 calls)
     g_psi        :      0.02s CPU      0.03s WALL (     395 calls)
     cdiaghg      :      0.10s CPU      0.09s WALL (     509 calls)

     Called by h_psi:
     h_psi:pot    :      1.46s CPU      1.54s WALL (     528 calls)
     h_psi:calbec :      0.02s CPU      0.03s WALL (     528 calls)
     vloc_psi     :      1.42s CPU      1.48s WALL (     528 calls)
     add_vuspsi   :      0.01s CPU      0.03s WALL (     528 calls)

     General routines
     calbec       :      0.04s CPU      0.05s WALL (     737 calls)
     fft          :      0.02s CPU      0.04s WALL (      46 calls)
     ffts         :      0.02s CPU      0.01s WALL (      13 calls)
     fftw         :      1.53s CPU      1.56s WALL (    6300 calls)
     interpolate  :      0.01s CPU      0.01s WALL (       7 calls)

     Parallel routines

     PWSCF        :     2.56s CPU         2.78s WALL


   This run was terminated on:  20:16:32  11Jan2020            

=------------------------------------------------------------------------------=
   JOB DONE.
=------------------------------------------------------------------------------=
