
     Program BANDS v.6.3 starts on 11Jan2020 at 20:29:49 

     This program is part of the open-source Quantum ESPRESSO suite
     for quantum simulation of materials; please cite
         "P. Giannozzi et al., J. Phys.:Condens. Matter 21 395502 (2009);
         "P. Giannozzi et al., J. Phys.:Condens. Matter 29 465901 (2017);
          URL http://www.quantum-espresso.org", 
     in publications or presentations arising from this work. More details at
     http://www.quantum-espresso.org/quote

     Parallel version (MPI), running on     1 processors

     MPI processes distributed on     1 nodes

     Reading data from directory:
     ./work/graphene.save/

     IMPORTANT: XC functional enforced from input :
     Exchange-correlation      = PZ ( 1  1  0  0 0 0)
     Any further DFT definition will be discarded
     Please, verify this is what you really want


     G-vector sticks info
     --------------------
     sticks:   dense  smooth     PW     G-vecs:    dense   smooth      PW
     Sum         211     169     61                10409     7409    1501


     negative rho (up, down):  1.647E-04 0.000E+00
     high-symmetry point:  0.0000 0.0000 0.0000   x coordinate   0.0000
     high-symmetry point:  0.6667 0.0000 0.0000   x coordinate   0.6667
     high-symmetry point:  0.5000 0.2887 0.0000   x coordinate   1.0000
     high-symmetry point:  0.0000 0.0000 0.0000   x coordinate   1.5774

     Plottable bands (eV) written to file graphene.band.gnu
     Bands written to file graphene.band

 **************************************************************************

                    xk=(   0.00000,   0.00000,   0.00000  )

     point group D_6h(6/mmm)
     there are 12 classes
     the character table:

       E     2C6   2C3   C2    3C2'  3C2'' i     2S3   2S6   s_h   3s_d  3s_v 
A_1g   1.00  1.00  1.00  1.00  1.00  1.00  1.00  1.00  1.00  1.00  1.00  1.00
A_2g   1.00  1.00  1.00  1.00 -1.00 -1.00  1.00  1.00  1.00  1.00 -1.00 -1.00
B_1g   1.00 -1.00  1.00 -1.00  1.00 -1.00  1.00 -1.00  1.00 -1.00  1.00 -1.00
B_2g   1.00 -1.00  1.00 -1.00 -1.00  1.00  1.00 -1.00  1.00 -1.00 -1.00  1.00
E_1g   2.00  1.00 -1.00 -2.00  0.00  0.00  2.00  1.00 -1.00 -2.00  0.00  0.00
E_2g   2.00 -1.00 -1.00  2.00  0.00  0.00  2.00 -1.00 -1.00  2.00  0.00  0.00
A_1u   1.00  1.00  1.00  1.00  1.00  1.00 -1.00 -1.00 -1.00 -1.00 -1.00 -1.00
A_2u   1.00  1.00  1.00  1.00 -1.00 -1.00 -1.00 -1.00 -1.00 -1.00  1.00  1.00
B_1u   1.00 -1.00  1.00 -1.00  1.00 -1.00 -1.00  1.00 -1.00  1.00 -1.00  1.00
B_2u   1.00 -1.00  1.00 -1.00 -1.00  1.00 -1.00  1.00 -1.00  1.00  1.00 -1.00
E_1u   2.00  1.00 -1.00 -2.00  0.00  0.00 -2.00 -1.00  1.00  2.00  0.00  0.00
E_2u   2.00 -1.00 -1.00  2.00  0.00  0.00 -2.00  1.00  1.00 -2.00  0.00  0.00

     the symmetry operations in each class and the name of the first element:

     E        1
                                                                 
     2C6      5    6
                                                                 
     2C3      7    8
                                                                 
     C2       2
                                                                 
     3C2'     4   12   11
                                                                 
     3C2''    3    9   10
                                                                 
     i       13
                                                                 
     2S3     17   18
                                                                 
     2S6     19   20
                                                                 
     s_h     14
                                                                 
     3s_d    16   24   23
                                                                 
     3s_v    15   21   22
                                                                 

     Band symmetry, D_6h(6/mmm) point group:

     e(  1 -  1) =    -20.11322  eV     1   --> A_1g           
     e(  2 -  2) =     -8.37379  eV     1   --> A_2u           
     e(  3 -  4) =     -3.51304  eV     2   --> E_2g           
     e(  5 -  5) =      2.62827  eV     1   --> A_1g           
     e(  6 -  6) =      4.43121  eV     1   --> A_2u           
     e(  7 -  7) =      5.45244  eV     1   --> A_1g           
     e(  8 -  9) =      8.03332  eV     2   --> E_1u           
     e( 10 - 10) =     10.52714  eV     1   --> A_2u           
     e( 11 - 11) =     11.34465  eV     1   --> B_1g           
     e( 12 - 12) =     12.54875  eV     1   --> A_1g           
     e( 13 - 13) =     13.12233  eV     1   --> B_2u           
     e( 14 - 14) =     19.98058  eV     1   --> A_2u           
     e( 15 - 15) =     22.15551  eV     1   --> A_1g           
     e( 16 - 16) =     23.13767  eV     1   --> A_1g           

 **************************************************************************

 **************************************************************************

                    xk=(   0.01333,   0.00000,   0.00000  )

     point group C_2v (mm2) 
     there are  4 classes
     the character table:

       E     C2    s_v   s_v' 
A_1    1.00  1.00  1.00  1.00
A_2    1.00  1.00 -1.00 -1.00
B_1    1.00 -1.00  1.00 -1.00
B_2    1.00 -1.00 -1.00  1.00

     the symmetry operations in each class and the name of the first element:

     E        1
                                                                 
     C2       2
                                                                 
     s_v      4
                                                                 
     s_v'     3
                                                                 

     Band symmetry, C_2v (mm2)  point group:

     e(  1 -  1) =    -20.10995  eV     1   --> A_1  D_1  S_1  
     e(  2 -  2) =     -8.36989  eV     1   --> B_1  D_3  S_3  
     e(  3 -  3) =     -3.52591  eV     1   --> B_2  D_4  S_4  
     e(  4 -  4) =     -3.52008  eV     1   --> A_1  D_1  S_1  
     e(  5 -  5) =      2.63267  eV     1   --> A_1  D_1  S_1  
     e(  6 -  6) =      4.43555  eV     1   --> B_1  D_3  S_3  
     e(  7 -  7) =      5.45679  eV     1   --> A_1  D_1  S_1  
     e(  8 -  8) =      8.03574  eV     1   --> A_1  D_1  S_1  
     e(  9 -  9) =      8.04786  eV     1   --> B_2  D_4  S_4  
     e( 10 - 10) =     10.53122  eV     1   --> B_1  D_3  S_3  
     e( 11 - 11) =     11.33310  eV     1   --> A_2  D_2  S_2  
     e( 12 - 12) =     12.55323  eV     1   --> A_1  D_1  S_1  
     e( 13 - 13) =     13.12714  eV     1   --> B_2  D_4  S_4  
     e( 14 - 14) =     19.98308  eV     1   --> B_1  D_3  S_3  
     e( 15 - 15) =     22.16648  eV     1   --> A_1  D_1  S_1  
     e( 16 - 16) =     23.14187  eV     1   --> A_1  D_1  S_1  

 **************************************************************************

 **************************************************************************

                    xk=(   0.02667,   0.00000,   0.00000  )

     Band symmetry, C_2v (mm2)  point group:

     e(  1 -  1) =    -20.10033  eV     1   --> A_1  D_1  S_1  
     e(  2 -  2) =     -8.35818  eV     1   --> B_1  D_3  S_3  
     e(  3 -  3) =     -3.56461  eV     1   --> B_2  D_4  S_4  
     e(  4 -  4) =     -3.54189  eV     1   --> A_1  D_1  S_1  
     e(  5 -  5) =      2.64579  eV     1   --> A_1  D_1  S_1  
     e(  6 -  6) =      4.44857  eV     1   --> B_1  D_3  S_3  
     e(  7 -  7) =      5.46972  eV     1   --> A_1  D_1  S_1  
     e(  8 -  8) =      8.04209  eV     1   --> A_1  D_1  S_1  
     e(  9 -  9) =      8.09059  eV     1   --> B_2  D_4  S_4  
     e( 10 - 10) =     10.54346  eV     1   --> B_1  D_3  S_3  
     e( 11 - 11) =     11.29854  eV     1   --> A_2  D_2  S_2  
     e( 12 - 12) =     12.56638  eV     1   --> A_1  D_1  S_1  
     e( 13 - 13) =     13.14166  eV     1   --> B_2  D_4  S_4  
     e( 14 - 14) =     19.99054  eV     1   --> B_1  D_3  S_3  
     e( 15 - 15) =     22.19889  eV     1   --> A_1  D_1  S_1  
     e( 16 - 16) =     23.15394  eV     1   --> A_1  D_1  S_1  

 **************************************************************************

 **************************************************************************

                    xk=(   0.04000,   0.00000,   0.00000  )

     Band symmetry, C_2v (mm2)  point group:

     e(  1 -  1) =    -20.08439  eV     1   --> A_1  D_1  S_1  
     e(  2 -  2) =     -8.33876  eV     1   --> B_1  D_3  S_3  
     e(  3 -  3) =     -3.62875  eV     1   --> B_2  D_4  S_4  
     e(  4 -  4) =     -3.57804  eV     1   --> A_1  D_1  S_1  
     e(  5 -  5) =      2.66764  eV     1   --> A_1  D_1  S_1  
     e(  6 -  6) =      4.47025  eV     1   --> B_1  D_3  S_3  
     e(  7 -  7) =      5.49125  eV     1   --> A_1  D_1  S_1  
     e(  8 -  8) =      8.05267  eV     1   --> A_1  D_1  S_1  
     e(  9 -  9) =      8.16026  eV     1   --> B_2  D_4  S_4  
     e( 10 - 10) =     10.56382  eV     1   --> B_1  D_3  S_3  
     e( 11 - 11) =     11.24123  eV     1   --> A_2  D_2  S_2  
     e( 12 - 12) =     12.58819  eV     1   --> A_1  D_1  S_1  
     e( 13 - 13) =     13.16606  eV     1   --> B_2  D_4  S_4  
     e( 14 - 14) =     20.00269  eV     1   --> B_1  D_3  S_3  
     e( 15 - 15) =     22.25209  eV     1   --> A_1  D_1  S_1  
     e( 16 - 16) =     23.17401  eV     1   --> A_1  D_1  S_1  

 **************************************************************************

 **************************************************************************

                    xk=(   0.05333,   0.00000,   0.00000  )

     Band symmetry, C_2v (mm2)  point group:

     e(  1 -  1) =    -20.06201  eV     1   --> A_1  D_1  S_1  
     e(  2 -  2) =     -8.31149  eV     1   --> B_1  D_3  S_3  
     e(  3 -  3) =     -3.71664  eV     1   --> B_2  D_4  S_4  
     e(  4 -  4) =     -3.62826  eV     1   --> A_1  D_1  S_1  
     e(  5 -  5) =      2.69826  eV     1   --> A_1  D_1  S_1  
     e(  6 -  6) =      4.50062  eV     1   --> B_1  D_3  S_3  
     e(  7 -  7) =      5.52144  eV     1   --> A_1  D_1  S_1  
     e(  8 -  8) =      8.06787  eV     1   --> A_1  D_1  S_1  
     e(  9 -  9) =      8.25588  eV     1   --> B_2  D_4  S_4  
     e( 10 - 10) =     10.59233  eV     1   --> B_1  D_3  S_3  
     e( 11 - 11) =     11.16171  eV     1   --> A_2  D_2  S_2  
     e( 12 - 12) =     12.61880  eV     1   --> A_1  D_1  S_1  
     e( 13 - 13) =     13.20088  eV     1   --> B_2  D_4  S_4  
     e( 14 - 14) =     20.01930  eV     1   --> B_1  D_3  S_3  
     e( 15 - 15) =     22.32551  eV     1   --> A_1  D_1  S_1  
     e( 16 - 16) =     23.20266  eV     1   --> A_1  D_1  S_1  

 **************************************************************************

 **************************************************************************

                    xk=(   0.06667,   0.00000,   0.00000  )

     Band symmetry, C_2v (mm2)  point group:

     e(  1 -  1) =    -20.03326  eV     1   --> A_1  D_1  S_1  
     e(  2 -  2) =     -8.27648  eV     1   --> B_1  D_3  S_3  
     e(  3 -  3) =     -3.82707  eV     1   --> B_2  D_4  S_4  
     e(  4 -  4) =     -3.69247  eV     1   --> A_1  D_1  S_1  
     e(  5 -  5) =      2.73763  eV     1   --> A_1  D_1  S_1  
     e(  6 -  6) =      4.53964  eV     1   --> B_1  D_3  S_3  
     e(  7 -  7) =      5.56027  eV     1   --> A_1  D_1  S_1  
     e(  8 -  8) =      8.08763  eV     1   --> A_1  D_1  S_1  
     e(  9 -  9) =      8.37516  eV     1   --> B_2  D_4  S_4  
     e( 10 - 10) =     10.62892  eV     1   --> B_1  D_3  S_3  
     e( 11 - 11) =     11.06033  eV     1   --> A_2  D_2  S_2  
     e( 12 - 12) =     12.65805  eV     1   --> A_1  D_1  S_1  
     e( 13 - 13) =     13.24627  eV     1   --> B_2  D_4  S_4  
     e( 14 - 14) =     20.03977  eV     1   --> B_1  D_3  S_3  
     e( 15 - 15) =     22.41746  eV     1   --> A_1  D_1  S_1  
     e( 16 - 16) =     23.24002  eV     1   --> A_1  D_1  S_1  

 **************************************************************************

 **************************************************************************

                    xk=(   0.08000,   0.00000,   0.00000  )

     Band symmetry, C_2v (mm2)  point group:

     e(  1 -  1) =    -19.99810  eV     1   --> A_1  D_1  S_1  
     e(  2 -  2) =     -8.23371  eV     1   --> B_1  D_3  S_3  
     e(  3 -  3) =     -3.95826  eV     1   --> B_2  D_4  S_4  
     e(  4 -  4) =     -3.77006  eV     1   --> A_1  D_1  S_1  
     e(  5 -  5) =      2.78576  eV     1   --> A_1  D_1  S_1  
     e(  6 -  6) =      4.58732  eV     1   --> B_1  D_3  S_3  
     e(  7 -  7) =      5.60775  eV     1   --> A_1  D_1  S_1  
     e(  8 -  8) =      8.11239  eV     1   --> A_1  D_1  S_1  
     e(  9 -  9) =      8.51562  eV     1   --> B_2  D_4  S_4  
     e( 10 - 10) =     10.67358  eV     1   --> B_1  D_3  S_3  
     e( 11 - 11) =     10.93798  eV     1   --> A_2  D_2  S_2  
     e( 12 - 12) =     12.70595  eV     1   --> A_1  D_1  S_1  
     e( 13 - 13) =     13.30306  eV     1   --> B_2  D_4  S_4  
     e( 14 - 14) =     20.06337  eV     1   --> B_1  D_3  S_3  
     e( 15 - 15) =     22.52602  eV     1   --> A_1  D_1  S_1  
     e( 16 - 16) =     23.28684  eV     1   --> A_1  D_1  S_1  

 **************************************************************************

 **************************************************************************

                    xk=(   0.09333,   0.00000,   0.00000  )

     Band symmetry, C_2v (mm2)  point group:

     e(  1 -  1) =    -19.95656  eV     1   --> A_1  D_1  S_1  
     e(  2 -  2) =     -8.18330  eV     1   --> B_1  D_3  S_3  
     e(  3 -  3) =     -4.10824  eV     1   --> B_2  D_4  S_4  
     e(  4 -  4) =     -3.86068  eV     1   --> A_1  D_1  S_1  
     e(  5 -  5) =      2.84264  eV     1   --> A_1  D_1  S_1  
     e(  6 -  6) =      4.64362  eV     1   --> B_1  D_3  S_3  
     e(  7 -  7) =      5.66389  eV     1   --> A_1  D_1  S_1  
     e(  8 -  8) =      8.14249  eV     1   --> A_1  D_1  S_1  
     e(  9 -  9) =      8.67469  eV     1   --> B_2  D_4  S_4  
     e( 10 - 10) =     10.72621  eV     1   --> B_1  D_3  S_3  
     e( 11 - 11) =     10.79558  eV     1   --> A_2  D_2  S_2  
     e( 12 - 12) =     12.76235  eV     1   --> A_1  D_1  S_1  
     e( 13 - 13) =     13.37205  eV     1   --> B_2  D_4  S_4  
     e( 14 - 14) =     20.08895  eV     1   --> B_1  D_3  S_3  
     e( 15 - 15) =     22.64832  eV     1   --> A_1  D_1  S_1  
     e( 16 - 16) =     23.34391  eV     1   --> A_1  D_1  S_1  

 **************************************************************************

 **************************************************************************

                    xk=(   0.10667,   0.00000,   0.00000  )

     Band symmetry, C_2v (mm2)  point group:

     e(  1 -  1) =    -19.90864  eV     1   --> A_1  D_1  S_1  
     e(  2 -  2) =     -8.12510  eV     1   --> B_1  D_3  S_3  
     e(  3 -  3) =     -4.27526  eV     1   --> B_2  D_4  S_4  
     e(  4 -  4) =     -3.96391  eV     1   --> A_1  D_1  S_1  
     e(  5 -  5) =      2.90830  eV     1   --> A_1  D_1  S_1  
     e(  6 -  6) =      4.70858  eV     1   --> B_1  D_3  S_3  
     e(  7 -  7) =      5.72871  eV     1   --> A_1  D_1  S_1  
     e(  8 -  8) =      8.17781  eV     1   --> A_1  D_1  S_1  
     e(  9 -  9) =      8.84871  eV     1   --> B_2  D_4  S_4  
     e( 10 - 10) =     10.63401  eV     1   --> A_2  D_2  S_2  
     e( 11 - 11) =     10.78682  eV     1   --> B_1  D_3  S_3  
     e( 12 - 12) =     12.82733  eV     1   --> A_1  D_1  S_1  
     e( 13 - 13) =     13.45420  eV     1   --> B_2  D_4  S_4  
     e( 14 - 14) =     20.11522  eV     1   --> B_1  D_3  S_3  
     e( 15 - 15) =     22.78109  eV     1   --> A_1  D_1  S_1  
     e( 16 - 16) =     23.41315  eV     1   --> A_1  D_1  S_1  

 **************************************************************************

 **************************************************************************

                    xk=(   0.12000,   0.00000,   0.00000  )

     Band symmetry, C_2v (mm2)  point group:

     e(  1 -  1) =    -19.85440  eV     1   --> A_1  D_1  S_1  
     e(  2 -  2) =     -8.05923  eV     1   --> B_1  D_3  S_3  
     e(  3 -  3) =     -4.45723  eV     1   --> B_2  D_4  S_4  
     e(  4 -  4) =     -4.07928  eV     1   --> A_1  D_1  S_1  
     e(  5 -  5) =      2.98272  eV     1   --> A_1  D_1  S_1  
     e(  6 -  6) =      4.78214  eV     1   --> B_1  D_3  S_3  
     e(  7 -  7) =      5.80221  eV     1   --> A_1  D_1  S_1  
     e(  8 -  8) =      8.21875  eV     1   --> A_1  D_1  S_1  
     e(  9 -  9) =      9.03471  eV     1   --> B_2  D_4  S_4  
     e( 10 - 10) =     10.45444  eV     1   --> A_2  D_2  S_2  
     e( 11 - 11) =     10.85532  eV     1   --> B_1  D_3  S_3  
     e( 12 - 12) =     12.90073  eV     1   --> A_1  D_1  S_1  
     e( 13 - 13) =     13.55057  eV     1   --> B_2  D_4  S_4  
     e( 14 - 14) =     20.14004  eV     1   --> B_1  D_3  S_3  
     e( 15 - 15) =     22.91924  eV     1   --> A_1  D_1  S_1  
     e( 16 - 16) =     23.49674  eV     1   --> A_1  D_1  S_1  

 **************************************************************************

 **************************************************************************

                    xk=(   0.13333,   0.00000,   0.00000  )

     Band symmetry, C_2v (mm2)  point group:

     e(  1 -  1) =    -19.79383  eV     1   --> A_1  D_1  S_1  
     e(  2 -  2) =     -7.98569  eV     1   --> B_1  D_3  S_3  
     e(  3 -  3) =     -4.65233  eV     1   --> B_2  D_4  S_4  
     e(  4 -  4) =     -4.20598  eV     1   --> A_1  D_1  S_1  
     e(  5 -  5) =      3.06589  eV     1   --> A_1  D_1  S_1  
     e(  6 -  6) =      4.86430  eV     1   --> B_1  D_3  S_3  
     e(  7 -  7) =      5.88438  eV     1   --> A_1  D_1  S_1  
     e(  8 -  8) =      8.26594  eV     1   --> A_1  D_1  S_1  
     e(  9 -  9) =      9.22928  eV     1   --> B_2  D_4  S_4  
     e( 10 - 10) =     10.25806  eV     1   --> A_2  D_2  S_2  
     e( 11 - 11) =     10.93160  eV     1   --> B_1  D_3  S_3  
     e( 12 - 12) =     12.98250  eV     1   --> A_1  D_1  S_1  
     e( 13 - 13) =     13.66235  eV     1   --> B_2  D_4  S_4  
     e( 14 - 14) =     20.16060  eV     1   --> B_1  D_3  S_3  
     e( 15 - 15) =     23.05686  eV     1   --> A_1  D_1  S_1  
     e( 16 - 16) =     23.59761  eV     1   --> A_1  D_1  S_1  

 **************************************************************************

 **************************************************************************

                    xk=(   0.14667,   0.00000,   0.00000  )

     Band symmetry, C_2v (mm2)  point group:

     e(  1 -  1) =    -19.72688  eV     1   --> A_1  D_1  S_1  
     e(  2 -  2) =     -7.90458  eV     1   --> B_1  D_3  S_3  
     e(  3 -  3) =     -4.85873  eV     1   --> B_2  D_4  S_4  
     e(  4 -  4) =     -4.34351  eV     1   --> A_1  D_1  S_1  
     e(  5 -  5) =      3.15784  eV     1   --> A_1  D_1  S_1  
     e(  6 -  6) =      4.95502  eV     1   --> B_1  D_3  S_3  
     e(  7 -  7) =      5.97529  eV     1   --> A_1  D_1  S_1  
     e(  8 -  8) =      8.31896  eV     1   --> A_1  D_1  S_1  
     e(  9 -  9) =      9.42909  eV     1   --> B_2  D_4  S_4  
     e( 10 - 10) =     10.04559  eV     1   --> A_2  D_2  S_2  
     e( 11 - 11) =     11.01555  eV     1   --> B_1  D_3  S_3  
     e( 12 - 12) =     13.07264  eV     1   --> A_1  D_1  S_1  
     e( 13 - 13) =     13.79064  eV     1   --> B_2  D_4  S_4  
     e( 14 - 14) =     20.17287  eV     1   --> B_1  D_3  S_3  
     e( 15 - 15) =     23.18770  eV     1   --> A_1  D_1  S_1  
     e( 16 - 16) =     23.71836  eV     1   --> A_1  D_1  S_1  

 **************************************************************************

 **************************************************************************

                    xk=(   0.16000,   0.00000,   0.00000  )

     Band symmetry, C_2v (mm2)  point group:

     e(  1 -  1) =    -19.65361  eV     1   --> A_1  D_1  S_1  
     e(  2 -  2) =     -7.81588  eV     1   --> B_1  D_3  S_3  
     e(  3 -  3) =     -5.07460  eV     1   --> B_2  D_4  S_4  
     e(  4 -  4) =     -4.49109  eV     1   --> A_1  D_1  S_1  
     e(  5 -  5) =      3.25856  eV     1   --> A_1  D_1  S_1  
     e(  6 -  6) =      5.05429  eV     1   --> B_1  D_3  S_3  
     e(  7 -  7) =      6.07491  eV     1   --> A_1  D_1  S_1  
     e(  8 -  8) =      8.37838  eV     1   --> A_1  D_1  S_1  
     e(  9 -  9) =      9.63098  eV     1   --> B_2  D_4  S_4  
     e( 10 - 10) =      9.81913  eV     1   --> A_2  D_2  S_2  
     e( 11 - 11) =     11.10705  eV     1   --> B_1  D_3  S_3  
     e( 12 - 12) =     13.17104  eV     1   --> A_1  D_1  S_1  
     e( 13 - 13) =     13.93684  eV     1   --> B_2  D_4  S_4  
     e( 14 - 14) =     20.17151  eV     1   --> B_1  D_3  S_3  
     e( 15 - 15) =     23.30743  eV     1   --> A_1  D_1  S_1  
     e( 16 - 16) =     23.85866  eV     1   --> A_1  D_1  S_1  

 **************************************************************************

 **************************************************************************

                    xk=(   0.17333,   0.00000,   0.00000  )

     Band symmetry, C_2v (mm2)  point group:

     e(  1 -  1) =    -19.57408  eV     1   --> A_1  D_1  S_1  
     e(  2 -  2) =     -7.71964  eV     1   --> B_1  D_3  S_3  
     e(  3 -  3) =     -5.29851  eV     1   --> B_2  D_4  S_4  
     e(  4 -  4) =     -4.64812  eV     1   --> A_1  D_1  S_1  
     e(  5 -  5) =      3.36803  eV     1   --> A_1  D_1  S_1  
     e(  6 -  6) =      5.16207  eV     1   --> B_1  D_3  S_3  
     e(  7 -  7) =      6.18324  eV     1   --> A_1  D_1  S_1  
     e(  8 -  8) =      8.44450  eV     1   --> A_1  D_1  S_1  
     e(  9 -  9) =      9.57957  eV     1   --> A_2  D_2  S_2  
     e( 10 - 10) =      9.83190  eV     1   --> B_2  D_4  S_4  
     e( 11 - 11) =     11.20594  eV     1   --> B_1  D_3  S_3  
     e( 12 - 12) =     13.27765  eV     1   --> A_1  D_1  S_1  
     e( 13 - 13) =     14.10200  eV     1   --> B_2  D_4  S_4  
     e( 14 - 14) =     20.14911  eV     1   --> B_1  D_3  S_3  
     e( 15 - 15) =     23.41450  eV     1   --> A_1  D_1  S_1  
     e( 16 - 16) =     23.68073  eV     1   --> B_1  D_3  S_3  

 **************************************************************************

 **************************************************************************

                    xk=(   0.18667,   0.00000,   0.00000  )

     Band symmetry, C_2v (mm2)  point group:

     e(  1 -  1) =    -19.48821  eV     1   --> A_1  D_1  S_1  
     e(  2 -  2) =     -7.61596  eV     1   --> B_1  D_3  S_3  
     e(  3 -  3) =     -5.52895  eV     1   --> B_2  D_4  S_4  
     e(  4 -  4) =     -4.81381  eV     1   --> A_1  D_1  S_1  
     e(  5 -  5) =      3.48627  eV     1   --> A_1  D_1  S_1  
     e(  6 -  6) =      5.27832  eV     1   --> B_1  D_3  S_3  
     e(  7 -  7) =      6.30030  eV     1   --> A_1  D_1  S_1  
     e(  8 -  8) =      8.51727  eV     1   --> A_1  D_1  S_1  
     e(  9 -  9) =      9.32823  eV     1   --> A_2  D_2  S_2  
     e( 10 - 10) =     10.02924  eV     1   --> B_2  D_4  S_4  
     e( 11 - 11) =     11.31202  eV     1   --> B_1  D_3  S_3  
     e( 12 - 12) =     13.39243  eV     1   --> A_1  D_1  S_1  
     e( 13 - 13) =     14.28681  eV     1   --> B_2  D_4  S_4  
     e( 14 - 14) =     20.09677  eV     1   --> B_1  D_3  S_3  
     e( 15 - 15) =     23.35066  eV     1   --> B_1  D_3  S_3  
     e( 16 - 16) =     23.50948  eV     1   --> A_1  D_1  S_1  

 **************************************************************************

 **************************************************************************

                    xk=(   0.20000,   0.00000,   0.00000  )

     Band symmetry, C_2v (mm2)  point group:

     e(  1 -  1) =    -19.39614  eV     1   --> A_1  D_1  S_1  
     e(  2 -  2) =     -7.50487  eV     1   --> B_1  D_3  S_3  
     e(  3 -  3) =     -5.76470  eV     1   --> B_2  D_4  S_4  
     e(  4 -  4) =     -4.98761  eV     1   --> A_1  D_1  S_1  
     e(  5 -  5) =      3.61325  eV     1   --> A_1  D_1  S_1  
     e(  6 -  6) =      5.40301  eV     1   --> B_1  D_3  S_3  
     e(  7 -  7) =      6.42607  eV     1   --> A_1  D_1  S_1  
     e(  8 -  8) =      8.59681  eV     1   --> A_1  D_1  S_1  
     e(  9 -  9) =      9.06632  eV     1   --> A_2  D_2  S_2  
     e( 10 - 10) =     10.22043  eV     1   --> B_2  D_4  S_4  
     e( 11 - 11) =     11.42505  eV     1   --> B_1  D_3  S_3  
     e( 12 - 12) =     13.51527  eV     1   --> A_1  D_1  S_1  
     e( 13 - 13) =     14.49181  eV     1   --> B_2  D_4  S_4  
     e( 14 - 14) =     20.00462  eV     1   --> B_1  D_3  S_3  
     e( 15 - 15) =     23.07540  eV     1   --> B_1  D_3  S_3  
     e( 16 - 16) =     23.59157  eV     1   --> A_1  D_1  S_1  

 **************************************************************************

 **************************************************************************

                    xk=(   0.21333,   0.00000,   0.00000  )

     Band symmetry, C_2v (mm2)  point group:

     e(  1 -  1) =    -19.29775  eV     1   --> A_1  D_1  S_1  
     e(  2 -  2) =     -7.38645  eV     1   --> B_1  D_3  S_3  
     e(  3 -  3) =     -6.00464  eV     1   --> B_2  D_4  S_4  
     e(  4 -  4) =     -5.16863  eV     1   --> A_1  D_1  S_1  
     e(  5 -  5) =      3.74899  eV     1   --> A_1  D_1  S_1  
     e(  6 -  6) =      5.53607  eV     1   --> B_1  D_3  S_3  
     e(  7 -  7) =      6.56057  eV     1   --> A_1  D_1  S_1  
     e(  8 -  8) =      8.68330  eV     1   --> A_1  D_1  S_1  
     e(  9 -  9) =      8.79471  eV     1   --> A_2  D_2  S_2  
     e( 10 - 10) =     10.40406  eV     1   --> B_2  D_4  S_4  
     e( 11 - 11) =     11.54472  eV     1   --> B_1  D_3  S_3  
     e( 12 - 12) =     13.64620  eV     1   --> A_1  D_1  S_1  
     e( 13 - 13) =     14.71686  eV     1   --> B_2  D_4  S_4  
     e( 14 - 14) =     19.86451  eV     1   --> B_1  D_3  S_3  
     e( 15 - 15) =     22.86334  eV     1   --> B_1  D_3  S_3  
     e( 16 - 16) =     23.65827  eV     1   --> A_1  D_1  S_1  

 **************************************************************************

 **************************************************************************

                    xk=(   0.22667,   0.00000,   0.00000  )

     Band symmetry, C_2v (mm2)  point group:

     e(  1 -  1) =    -19.19320  eV     1   --> A_1  D_1  S_1  
     e(  2 -  2) =     -7.26075  eV     1   --> B_1  D_3  S_3  
     e(  3 -  3) =     -6.24760  eV     1   --> B_2  D_4  S_4  
     e(  4 -  4) =     -5.35626  eV     1   --> A_1  D_1  S_1  
     e(  5 -  5) =      3.89346  eV     1   --> A_1  D_1  S_1  
     e(  6 -  6) =      5.67746  eV     1   --> B_1  D_3  S_3  
     e(  7 -  7) =      6.70379  eV     1   --> A_1  D_1  S_1  
     e(  8 -  8) =      8.51535  eV     1   --> A_2  D_2  S_2  
     e(  9 -  9) =      8.77664  eV     1   --> A_1  D_1  S_1  
     e( 10 - 10) =     10.57875  eV     1   --> B_2  D_4  S_4  
     e( 11 - 11) =     11.67069  eV     1   --> B_1  D_3  S_3  
     e( 12 - 12) =     13.78507  eV     1   --> A_1  D_1  S_1  
     e( 13 - 13) =     14.96170  eV     1   --> B_2  D_4  S_4  
     e( 14 - 14) =     19.67422  eV     1   --> B_1  D_3  S_3  
     e( 15 - 15) =     22.71841  eV     1   --> B_1  D_3  S_3  
     e( 16 - 16) =     23.70212  eV     1   --> A_1  D_1  S_1  

 **************************************************************************

 **************************************************************************

                    xk=(   0.24000,   0.00000,   0.00000  )

     Band symmetry, C_2v (mm2)  point group:

     e(  1 -  1) =    -19.08243  eV     1   --> A_1  D_1  S_1  
     e(  2 -  2) =     -7.12783  eV     1   --> B_1  D_3  S_3  
     e(  3 -  3) =     -6.49272  eV     1   --> B_2  D_4  S_4  
     e(  4 -  4) =     -5.54946  eV     1   --> A_1  D_1  S_1  
     e(  5 -  5) =      4.04665  eV     1   --> A_1  D_1  S_1  
     e(  6 -  6) =      5.82711  eV     1   --> B_1  D_3  S_3  
     e(  7 -  7) =      6.85572  eV     1   --> A_1  D_1  S_1  
     e(  8 -  8) =      8.22902  eV     1   --> A_2  D_2  S_2  
     e(  9 -  9) =      8.87749  eV     1   --> A_1  D_1  S_1  
     e( 10 - 10) =     10.74384  eV     1   --> B_2  D_4  S_4  
     e( 11 - 11) =     11.80249  eV     1   --> B_1  D_3  S_3  
     e( 12 - 12) =     13.93190  eV     1   --> A_1  D_1  S_1  
     e( 13 - 13) =     15.22529  eV     1   --> B_2  D_4  S_4  
     e( 14 - 14) =     19.43768  eV     1   --> B_1  D_3  S_3  
     e( 15 - 15) =     22.63679  eV     1   --> B_1  D_3  S_3  
     e( 16 - 16) =     23.71011  eV     1   --> A_1  D_1  S_1  

 **************************************************************************

 **************************************************************************

                    xk=(   0.25333,   0.00000,   0.00000  )

     Band symmetry, C_2v (mm2)  point group:

     e(  1 -  1) =    -18.96553  eV     1   --> A_1  D_1  S_1  
     e(  2 -  2) =     -6.98782  eV     1   --> B_1  D_3  S_3  
     e(  3 -  3) =     -6.73940  eV     1   --> B_2  D_4  S_4  
     e(  4 -  4) =     -5.74794  eV     1   --> A_1  D_1  S_1  
     e(  5 -  5) =      4.20855  eV     1   --> A_1  D_1  S_1  
     e(  6 -  6) =      5.98493  eV     1   --> B_1  D_3  S_3  
     e(  7 -  7) =      7.01633  eV     1   --> A_1  D_1  S_1  
     e(  8 -  8) =      7.93677  eV     1   --> A_2  D_2  S_2  
     e(  9 -  9) =      8.98518  eV     1   --> A_1  D_1  S_1  
     e( 10 - 10) =     10.89903  eV     1   --> B_2  D_4  S_4  
     e( 11 - 11) =     11.93953  eV     1   --> B_1  D_3  S_3  
     e( 12 - 12) =     14.08659  eV     1   --> A_1  D_1  S_1  
     e( 13 - 13) =     15.50578  eV     1   --> B_2  D_4  S_4  
     e( 14 - 14) =     19.16407  eV     1   --> B_1  D_3  S_3  
     e( 15 - 15) =     22.60895  eV     1   --> B_1  D_3  S_3  
     e( 16 - 16) =     23.66314  eV     1   --> A_1  D_1  S_1  

 **************************************************************************

 **************************************************************************

                    xk=(   0.26667,   0.00000,   0.00000  )

     Band symmetry, C_2v (mm2)  point group:

     e(  1 -  1) =    -18.84246  eV     1   --> A_1  D_1  S_1  
     e(  2 -  2) =     -6.98653  eV     1   --> B_2  D_4  S_4  
     e(  3 -  3) =     -6.84081  eV     1   --> B_1  D_3  S_3  
     e(  4 -  4) =     -5.95097  eV     1   --> A_1  D_1  S_1  
     e(  5 -  5) =      4.37916  eV     1   --> A_1  D_1  S_1  
     e(  6 -  6) =      6.15083  eV     1   --> B_1  D_3  S_3  
     e(  7 -  7) =      7.18564  eV     1   --> A_1  D_1  S_1  
     e(  8 -  8) =      7.63967  eV     1   --> A_2  D_2  S_2  
     e(  9 -  9) =      9.09979  eV     1   --> A_1  D_1  S_1  
     e( 10 - 10) =     11.04475  eV     1   --> B_2  D_4  S_4  
     e( 11 - 11) =     12.08105  eV     1   --> B_1  D_3  S_3  
     e( 12 - 12) =     14.24908  eV     1   --> A_1  D_1  S_1  
     e( 13 - 13) =     15.80118  eV     1   --> B_2  D_4  S_4  
     e( 14 - 14) =     18.86480  eV     1   --> B_1  D_3  S_3  
     e( 15 - 15) =     22.62401  eV     1   --> B_1  D_3  S_3  
     e( 16 - 16) =     23.54190  eV     1   --> A_1  D_1  S_1  

 **************************************************************************

 **************************************************************************

                    xk=(   0.28000,   0.00000,   0.00000  )

     Band symmetry, C_2v (mm2)  point group:

     e(  1 -  1) =    -18.71329  eV     1   --> A_1  D_1  S_1  
     e(  2 -  2) =     -7.23353  eV     1   --> B_2  D_4  S_4  
     e(  3 -  3) =     -6.68686  eV     1   --> B_1  D_3  S_3  
     e(  4 -  4) =     -6.15778  eV     1   --> A_1  D_1  S_1  
     e(  5 -  5) =      4.55845  eV     1   --> A_1  D_1  S_1  
     e(  6 -  6) =      6.32469  eV     1   --> B_1  D_3  S_3  
     e(  7 -  7) =      7.33869  eV     1   --> A_2  D_2  S_2  
     e(  8 -  8) =      7.36363  eV     1   --> A_1  D_1  S_1  
     e(  9 -  9) =      9.22179  eV     1   --> A_1  D_1  S_1  
     e( 10 - 10) =     11.18175  eV     1   --> B_2  D_4  S_4  
     e( 11 - 11) =     12.22608  eV     1   --> B_1  D_3  S_3  
     e( 12 - 12) =     14.41930  eV     1   --> A_1  D_1  S_1  
     e( 13 - 13) =     16.10938  eV     1   --> B_2  D_4  S_4  
     e( 14 - 14) =     18.55050  eV     1   --> B_1  D_3  S_3  
     e( 15 - 15) =     22.67124  eV     1   --> B_1  D_3  S_3  
     e( 16 - 16) =     23.34007  eV     1   --> A_1  D_1  S_1  

 **************************************************************************

 **************************************************************************

                    xk=(   0.29333,   0.00000,   0.00000  )

     Band symmetry, C_2v (mm2)  point group:

     e(  1 -  1) =    -18.57805  eV     1   --> A_1  D_1  S_1  
     e(  2 -  2) =     -7.48003  eV     1   --> B_2  D_4  S_4  
     e(  3 -  3) =     -6.52611  eV     1   --> B_1  D_3  S_3  
     e(  4 -  4) =     -6.36768  eV     1   --> A_1  D_1  S_1  
     e(  5 -  5) =      4.74641  eV     1   --> A_1  D_1  S_1  
     e(  6 -  6) =      6.50638  eV     1   --> B_1  D_3  S_3  
     e(  7 -  7) =      7.03468  eV     1   --> A_2  D_2  S_2  
     e(  8 -  8) =      7.55025  eV     1   --> A_1  D_1  S_1  
     e(  9 -  9) =      9.35048  eV     1   --> A_1  D_1  S_1  
     e( 10 - 10) =     11.30998  eV     1   --> B_2  D_4  S_4  
     e( 11 - 11) =     12.37334  eV     1   --> B_1  D_3  S_3  
     e( 12 - 12) =     14.59715  eV     1   --> A_1  D_1  S_1  
     e( 13 - 13) =     16.42686  eV     1   --> B_2  D_4  S_4  
     e( 14 - 14) =     18.23048  eV     1   --> B_1  D_3  S_3  
     e( 15 - 15) =     22.74109  eV     1   --> B_1  D_3  S_3  
     e( 16 - 16) =     23.06979  eV     1   --> A_1  D_1  S_1  

 **************************************************************************

 **************************************************************************

                    xk=(   0.30667,   0.00000,   0.00000  )

     Band symmetry, C_2v (mm2)  point group:

     e(  1 -  1) =    -18.43672  eV     1   --> A_1  D_1  S_1  
     e(  2 -  2) =     -7.72540  eV     1   --> B_2  D_4  S_4  
     e(  3 -  3) =     -6.58009  eV     1   --> A_1  D_1  S_1  
     e(  4 -  4) =     -6.35851  eV     1   --> B_1  D_3  S_3  
     e(  5 -  5) =      4.94305  eV     1   --> A_1  D_1  S_1  
     e(  6 -  6) =      6.69578  eV     1   --> B_1  D_3  S_3  
     e(  7 -  7) =      6.72863  eV     1   --> A_2  D_2  S_2  
     e(  8 -  8) =      7.74558  eV     1   --> A_1  D_1  S_1  
     e(  9 -  9) =      9.48597  eV     1   --> A_1  D_1  S_1  
     e( 10 - 10) =     11.43118  eV     1   --> B_2  D_4  S_4  
     e( 11 - 11) =     12.52121  eV     1   --> B_1  D_3  S_3  
     e( 12 - 12) =     14.78266  eV     1   --> A_1  D_1  S_1  
     e( 13 - 13) =     16.75031  eV     1   --> B_2  D_4  S_4  
     e( 14 - 14) =     17.91227  eV     1   --> B_1  D_3  S_3  
     e( 15 - 15) =     22.75130  eV     1   --> A_1  D_1  S_1  
     e( 16 - 16) =     22.82490  eV     1   --> B_1  D_3  S_3  

 **************************************************************************

 **************************************************************************

                    xk=(   0.32000,   0.00000,   0.00000  )

     Band symmetry, C_2v (mm2)  point group:

     e(  1 -  1) =    -18.28949  eV     1   --> A_1  D_1  S_1  
     e(  2 -  2) =     -7.96926  eV     1   --> B_2  D_4  S_4  
     e(  3 -  3) =     -6.79463  eV     1   --> A_1  D_1  S_1  
     e(  4 -  4) =     -6.18463  eV     1   --> B_1  D_3  S_3  
     e(  5 -  5) =      5.14826  eV     1   --> A_1  D_1  S_1  
     e(  6 -  6) =      6.42121  eV     1   --> A_2  D_2  S_2  
     e(  7 -  7) =      6.89258  eV     1   --> B_1  D_3  S_3  
     e(  8 -  8) =      7.94940  eV     1   --> A_1  D_1  S_1  
     e(  9 -  9) =      9.62770  eV     1   --> A_1  D_1  S_1  
     e( 10 - 10) =     11.54532  eV     1   --> B_2  D_4  S_4  
     e( 11 - 11) =     12.66723  eV     1   --> B_1  D_3  S_3  
     e( 12 - 12) =     14.97535  eV     1   --> A_1  D_1  S_1  
     e( 13 - 13) =     17.07568  eV     1   --> B_2  D_4  S_4  
     e( 14 - 14) =     17.60256  eV     1   --> B_1  D_3  S_3  
     e( 15 - 15) =     22.40297  eV     1   --> A_1  D_1  S_1  
     e( 16 - 16) =     22.91316  eV     1   --> B_1  D_3  S_3  

 **************************************************************************

 **************************************************************************

                    xk=(   0.33333,   0.00000,   0.00000  )

     Band symmetry, C_2v (mm2)  point group:

     e(  1 -  1) =    -18.13629  eV     1   --> A_1  D_1  S_1  
     e(  2 -  2) =     -8.21115  eV     1   --> B_2  D_4  S_4  
     e(  3 -  3) =     -7.01050  eV     1   --> A_1  D_1  S_1  
     e(  4 -  4) =     -6.00440  eV     1   --> B_1  D_3  S_3  
     e(  5 -  5) =      5.36206  eV     1   --> A_1  D_1  S_1  
     e(  6 -  6) =      6.11321  eV     1   --> A_2  D_2  S_2  
     e(  7 -  7) =      7.09660  eV     1   --> B_1  D_3  S_3  
     e(  8 -  8) =      8.16177  eV     1   --> A_1  D_1  S_1  
     e(  9 -  9) =      9.77601  eV     1   --> A_1  D_1  S_1  
     e( 10 - 10) =     11.65355  eV     1   --> B_2  D_4  S_4  
     e( 11 - 11) =     12.80842  eV     1   --> B_1  D_3  S_3  
     e( 12 - 12) =     15.17528  eV     1   --> A_1  D_1  S_1  
     e( 13 - 13) =     17.30773  eV     1   --> B_1  D_3  S_3  
     e( 14 - 14) =     17.39835  eV     1   --> B_2  D_4  S_4  
     e( 15 - 15) =     22.03782  eV     1   --> A_1  D_1  S_1  
     e( 16 - 16) =     22.60035  eV     1   --> B_2  D_4  S_4  

 **************************************************************************

 **************************************************************************

                    xk=(   0.34667,   0.00000,   0.00000  )

     Band symmetry, C_2v (mm2)  point group:

     e(  1 -  1) =    -17.97722  eV     1   --> A_1  D_1  S_1  
     e(  2 -  2) =     -8.45072  eV     1   --> B_2  D_4  S_4  
     e(  3 -  3) =     -7.22727  eV     1   --> A_1  D_1  S_1  
     e(  4 -  4) =     -5.81797  eV     1   --> B_1  D_3  S_3  
     e(  5 -  5) =      5.58441  eV     1   --> A_1  D_1  S_1  
     e(  6 -  6) =      5.80530  eV     1   --> A_2  D_2  S_2  
     e(  7 -  7) =      7.30751  eV     1   --> B_1  D_3  S_3  
     e(  8 -  8) =      8.38262  eV     1   --> A_1  D_1  S_1  
     e(  9 -  9) =      9.93050  eV     1   --> A_1  D_1  S_1  
     e( 10 - 10) =     11.75660  eV     1   --> B_2  D_4  S_4  
     e( 11 - 11) =     12.94068  eV     1   --> B_1  D_3  S_3  
     e( 12 - 12) =     15.38220  eV     1   --> A_1  D_1  S_1  
     e( 13 - 13) =     17.03437  eV     1   --> B_1  D_3  S_3  
     e( 14 - 14) =     17.71216  eV     1   --> B_2  D_4  S_4  
     e( 15 - 15) =     21.66441  eV     1   --> A_1  D_1  S_1  
     e( 16 - 16) =     22.22106  eV     1   --> B_2  D_4  S_4  

 **************************************************************************

 **************************************************************************

                    xk=(   0.36000,   0.00000,   0.00000  )

     Band symmetry, C_2v (mm2)  point group:

     e(  1 -  1) =    -17.81233  eV     1   --> A_1  D_1  S_1  
     e(  2 -  2) =     -8.68765  eV     1   --> B_2  D_4  S_4  
     e(  3 -  3) =     -7.44442  eV     1   --> A_1  D_1  S_1  
     e(  4 -  4) =     -5.62542  eV     1   --> B_1  D_3  S_3  
     e(  5 -  5) =      5.49811  eV     1   --> A_2  D_2  S_2  
     e(  6 -  6) =      5.81529  eV     1   --> A_1  D_1  S_1  
     e(  7 -  7) =      7.52494  eV     1   --> B_1  D_3  S_3  
     e(  8 -  8) =      8.61194  eV     1   --> A_1  D_1  S_1  
     e(  9 -  9) =     10.09100  eV     1   --> A_1  D_1  S_1  
     e( 10 - 10) =     11.85508  eV     1   --> B_2  D_4  S_4  
     e( 11 - 11) =     13.05862  eV     1   --> B_1  D_3  S_3  
     e( 12 - 12) =     15.59589  eV     1   --> A_1  D_1  S_1  
     e( 13 - 13) =     16.78990  eV     1   --> B_1  D_3  S_3  
     e( 14 - 14) =     18.00888  eV     1   --> B_2  D_4  S_4  
     e( 15 - 15) =     21.28830  eV     1   --> A_1  D_1  S_1  
     e( 16 - 16) =     21.86582  eV     1   --> B_2  D_4  S_4  

 **************************************************************************

 **************************************************************************

                    xk=(   0.37333,   0.00000,   0.00000  )

     Band symmetry, C_2v (mm2)  point group:

     e(  1 -  1) =    -17.64174  eV     1   --> A_1  D_1  S_1  
     e(  2 -  2) =     -8.92165  eV     1   --> B_2  D_4  S_4  
     e(  3 -  3) =     -7.66148  eV     1   --> A_1  D_1  S_1  
     e(  4 -  4) =     -5.42721  eV     1   --> B_1  D_3  S_3  
     e(  5 -  5) =      5.19215  eV     1   --> A_2  D_2  S_2  
     e(  6 -  6) =      6.05461  eV     1   --> A_1  D_1  S_1  
     e(  7 -  7) =      7.74836  eV     1   --> B_1  D_3  S_3  
     e(  8 -  8) =      8.84958  eV     1   --> A_1  D_1  S_1  
     e(  9 -  9) =     10.25695  eV     1   --> A_1  D_1  S_1  
     e( 10 - 10) =     11.94935  eV     1   --> B_2  D_4  S_4  
     e( 11 - 11) =     13.15553  eV     1   --> B_1  D_3  S_3  
     e( 12 - 12) =     15.81587  eV     1   --> A_1  D_1  S_1  
     e( 13 - 13) =     16.58254  eV     1   --> B_1  D_3  S_3  
     e( 14 - 14) =     18.27688  eV     1   --> B_2  D_4  S_4  
     e( 15 - 15) =     20.91319  eV     1   --> A_1  D_1  S_1  
     e( 16 - 16) =     21.54194  eV     1   --> B_2  D_4  S_4  

 **************************************************************************

 **************************************************************************

                    xk=(   0.38667,   0.00000,   0.00000  )

     Band symmetry, C_2v (mm2)  point group:

     e(  1 -  1) =    -17.46550  eV     1   --> A_1  D_1  S_1  
     e(  2 -  2) =     -9.15251  eV     1   --> B_2  D_4  S_4  
     e(  3 -  3) =     -7.87800  eV     1   --> A_1  D_1  S_1  
     e(  4 -  4) =     -5.22345  eV     1   --> B_1  D_3  S_3  
     e(  5 -  5) =      4.88805  eV     1   --> A_2  D_2  S_2  
     e(  6 -  6) =      6.30235  eV     1   --> A_1  D_1  S_1  
     e(  7 -  7) =      7.97713  eV     1   --> B_1  D_3  S_3  
     e(  8 -  8) =      9.09549  eV     1   --> A_1  D_1  S_1  
     e(  9 -  9) =     10.42825  eV     1   --> A_1  D_1  S_1  
     e( 10 - 10) =     12.04015  eV     1   --> B_2  D_4  S_4  
     e( 11 - 11) =     13.22383  eV     1   --> B_1  D_3  S_3  
     e( 12 - 12) =     16.04183  eV     1   --> A_1  D_1  S_1  
     e( 13 - 13) =     16.42121  eV     1   --> B_1  D_3  S_3  
     e( 14 - 14) =     18.49946  eV     1   --> B_2  D_4  S_4  
     e( 15 - 15) =     20.54166  eV     1   --> A_1  D_1  S_1  
     e( 16 - 16) =     21.26055  eV     1   --> B_2  D_4  S_4  

 **************************************************************************

 **************************************************************************

                    xk=(   0.40000,   0.00000,   0.00000  )

     Band symmetry, C_2v (mm2)  point group:

     e(  1 -  1) =    -17.28373  eV     1   --> A_1  D_1  S_1  
     e(  2 -  2) =     -9.37983  eV     1   --> B_2  D_4  S_4  
     e(  3 -  3) =     -8.09372  eV     1   --> A_1  D_1  S_1  
     e(  4 -  4) =     -5.01433  eV     1   --> B_1  D_3  S_3  
     e(  5 -  5) =      4.58588  eV     1   --> A_2  D_2  S_2  
     e(  6 -  6) =      6.55842  eV     1   --> A_1  D_1  S_1  
     e(  7 -  7) =      8.21040  eV     1   --> B_1  D_3  S_3  
     e(  8 -  8) =      9.34955  eV     1   --> A_1  D_1  S_1  
     e(  9 -  9) =     10.60489  eV     1   --> A_1  D_1  S_1  
     e( 10 - 10) =     12.12743  eV     1   --> B_2  D_4  S_4  
     e( 11 - 11) =     13.25662  eV     1   --> B_1  D_3  S_3  
     e( 12 - 12) =     16.27308  eV     1   --> A_1  D_1  S_1  
     e( 13 - 13) =     16.31435  eV     1   --> B_1  D_3  S_3  
     e( 14 - 14) =     18.65445  eV     1   --> B_2  D_4  S_4  
     e( 15 - 15) =     20.17567  eV     1   --> A_1  D_1  S_1  
     e( 16 - 16) =     21.03634  eV     1   --> B_2  D_4  S_4  

 **************************************************************************

 **************************************************************************

                    xk=(   0.41333,   0.00000,   0.00000  )

     Band symmetry, C_2v (mm2)  point group:

     e(  1 -  1) =    -17.09646  eV     1   --> A_1  D_1  S_1  
     e(  2 -  2) =     -9.60371  eV     1   --> B_2  D_4  S_4  
     e(  3 -  3) =     -8.30784  eV     1   --> A_1  D_1  S_1  
     e(  4 -  4) =     -4.80022  eV     1   --> B_1  D_3  S_3  
     e(  5 -  5) =      4.28688  eV     1   --> A_2  D_2  S_2  
     e(  6 -  6) =      6.82276  eV     1   --> A_1  D_1  S_1  
     e(  7 -  7) =      8.44704  eV     1   --> B_1  D_3  S_3  
     e(  8 -  8) =      9.61159  eV     1   --> A_1  D_1  S_1  
     e(  9 -  9) =     10.78545  eV     1   --> A_1  D_1  S_1  
     e( 10 - 10) =     12.21175  eV     1   --> B_2  D_4  S_4  
     e( 11 - 11) =     13.25022  eV     1   --> B_1  D_3  S_3  
     e( 12 - 12) =     16.26750  eV     1   --> B_1  D_3  S_3  
     e( 13 - 13) =     16.50897  eV     1   --> A_1  D_1  S_1  
     e( 14 - 14) =     18.71775  eV     1   --> B_2  D_4  S_4  
     e( 15 - 15) =     19.81665  eV     1   --> A_1  D_1  S_1  
     e( 16 - 16) =     20.80919  eV     1   --> A_2  D_2  S_2  

 **************************************************************************

 **************************************************************************

                    xk=(   0.42667,   0.00000,   0.00000  )

     Band symmetry, C_2v (mm2)  point group:

     e(  1 -  1) =    -16.90374  eV     1   --> A_1  D_1  S_1  
     e(  2 -  2) =     -9.82374  eV     1   --> B_2  D_4  S_4  
     e(  3 -  3) =     -8.52019  eV     1   --> A_1  D_1  S_1  
     e(  4 -  4) =     -4.58144  eV     1   --> B_1  D_3  S_3  
     e(  5 -  5) =      3.99083  eV     1   --> A_2  D_2  S_2  
     e(  6 -  6) =      7.09530  eV     1   --> A_1  D_1  S_1  
     e(  7 -  7) =      8.68554  eV     1   --> B_1  D_3  S_3  
     e(  8 -  8) =      9.88148  eV     1   --> A_1  D_1  S_1  
     e(  9 -  9) =     10.96995  eV     1   --> A_1  D_1  S_1  
     e( 10 - 10) =     12.29277  eV     1   --> B_2  D_4  S_4  
     e( 11 - 11) =     13.20587  eV     1   --> B_1  D_3  S_3  
     e( 12 - 12) =     16.28059  eV     1   --> B_1  D_3  S_3  
     e( 13 - 13) =     16.74830  eV     1   --> A_1  D_1  S_1  
     e( 14 - 14) =     18.67890  eV     1   --> B_2  D_4  S_4  
     e( 15 - 15) =     19.46603  eV     1   --> A_1  D_1  S_1  
     e( 16 - 16) =     20.46211  eV     1   --> A_2  D_2  S_2  

 **************************************************************************

 **************************************************************************

                    xk=(   0.44000,   0.00000,   0.00000  )

     Band symmetry, C_2v (mm2)  point group:

     e(  1 -  1) =    -16.70575  eV     1   --> A_1  D_1  S_1  
     e(  2 -  2) =    -10.03969  eV     1   --> B_2  D_4  S_4  
     e(  3 -  3) =     -8.73032  eV     1   --> A_1  D_1  S_1  
     e(  4 -  4) =     -4.35826  eV     1   --> B_1  D_3  S_3  
     e(  5 -  5) =      3.69863  eV     1   --> A_2  D_2  S_2  
     e(  6 -  6) =      7.37592  eV     1   --> A_1  D_1  S_1  
     e(  7 -  7) =      8.92378  eV     1   --> B_1  D_3  S_3  
     e(  8 -  8) =     10.15894  eV     1   --> A_1  D_1  S_1  
     e(  9 -  9) =     11.15806  eV     1   --> A_1  D_1  S_1  
     e( 10 - 10) =     12.37108  eV     1   --> B_2  D_4  S_4  
     e( 11 - 11) =     13.13065  eV     1   --> B_1  D_3  S_3  
     e( 12 - 12) =     16.34867  eV     1   --> B_1  D_3  S_3  
     e( 13 - 13) =     16.98931  eV     1   --> A_1  D_1  S_1  
     e( 14 - 14) =     18.55095  eV     1   --> B_2  D_4  S_4  
     e( 15 - 15) =     19.12543  eV     1   --> A_1  D_1  S_1  
     e( 16 - 16) =     20.11926  eV     1   --> A_2  D_2  S_2  

 **************************************************************************

 **************************************************************************

                    xk=(   0.45333,   0.00000,   0.00000  )

     Band symmetry, C_2v (mm2)  point group:

     e(  1 -  1) =    -16.50265  eV     1   --> A_1  D_1  S_1  
     e(  2 -  2) =    -10.25167  eV     1   --> B_2  D_4  S_4  
     e(  3 -  3) =     -8.93786  eV     1   --> A_1  D_1  S_1  
     e(  4 -  4) =     -4.13111  eV     1   --> B_1  D_3  S_3  
     e(  5 -  5) =      3.41048  eV     1   --> A_2  D_2  S_2  
     e(  6 -  6) =      7.66449  eV     1   --> A_1  D_1  S_1  
     e(  7 -  7) =      9.15889  eV     1   --> B_1  D_3  S_3  
     e(  8 -  8) =     10.44360  eV     1   --> A_1  D_1  S_1  
     e(  9 -  9) =     11.34875  eV     1   --> A_1  D_1  S_1  
     e( 10 - 10) =     12.44618  eV     1   --> B_2  D_4  S_4  
     e( 11 - 11) =     13.03579  eV     1   --> B_1  D_3  S_3  
     e( 12 - 12) =     16.46303  eV     1   --> B_1  D_3  S_3  
     e( 13 - 13) =     17.22896  eV     1   --> A_1  D_1  S_1  
     e( 14 - 14) =     18.36015  eV     1   --> B_2  D_4  S_4  
     e( 15 - 15) =     18.79717  eV     1   --> A_1  D_1  S_1  
     e( 16 - 16) =     19.78129  eV     1   --> A_2  D_2  S_2  

 **************************************************************************

 **************************************************************************

                    xk=(   0.46667,   0.00000,   0.00000  )

     Band symmetry, C_2v (mm2)  point group:

     e(  1 -  1) =    -16.29463  eV     1   --> A_1  D_1  S_1  
     e(  2 -  2) =    -10.45942  eV     1   --> B_2  D_4  S_4  
     e(  3 -  3) =     -9.14250  eV     1   --> A_1  D_1  S_1  
     e(  4 -  4) =     -3.90044  eV     1   --> B_1  D_3  S_3  
     e(  5 -  5) =      3.12639  eV     1   --> A_2  D_2  S_2  
     e(  6 -  6) =      7.96084  eV     1   --> A_1  D_1  S_1  
     e(  7 -  7) =      9.38680  eV     1   --> B_1  D_3  S_3  
     e(  8 -  8) =     10.73491  eV     1   --> A_1  D_1  S_1  
     e(  9 -  9) =     11.54134  eV     1   --> A_1  D_1  S_1  
     e( 10 - 10) =     12.51761  eV     1   --> B_2  D_4  S_4  
     e( 11 - 11) =     12.93414  eV     1   --> B_1  D_3  S_3  
     e( 12 - 12) =     16.61373  eV     1   --> B_1  D_3  S_3  
     e( 13 - 13) =     17.46023  eV     1   --> A_1  D_1  S_1  
     e( 14 - 14) =     18.13252  eV     1   --> B_2  D_4  S_4  
     e( 15 - 15) =     18.48690  eV     1   --> A_1  D_1  S_1  
     e( 16 - 16) =     19.44871  eV     1   --> A_2  D_2  S_2  

 **************************************************************************

 **************************************************************************

                    xk=(   0.48000,   0.00000,   0.00000  )

     Band symmetry, C_2v (mm2)  point group:

     e(  1 -  1) =    -16.08181  eV     1   --> A_1  D_1  S_1  
     e(  2 -  2) =    -10.66280  eV     1   --> B_2  D_4  S_4  
     e(  3 -  3) =     -9.34379  eV     1   --> A_1  D_1  S_1  
     e(  4 -  4) =     -3.66665  eV     1   --> B_1  D_3  S_3  
     e(  5 -  5) =      2.84693  eV     1   --> A_2  D_2  S_2  
     e(  6 -  6) =      8.26479  eV     1   --> A_1  D_1  S_1  
     e(  7 -  7) =      9.60201  eV     1   --> B_1  D_3  S_3  
     e(  8 -  8) =     11.03202  eV     1   --> A_1  D_1  S_1  
     e(  9 -  9) =     11.73557  eV     1   --> A_1  D_1  S_1  
     e( 10 - 10) =     12.58540  eV     1   --> B_2  D_4  S_4  
     e( 11 - 11) =     12.83951  eV     1   --> B_1  D_3  S_3  
     e( 12 - 12) =     16.79114  eV     1   --> B_1  D_3  S_3  
     e( 13 - 13) =     17.65792  eV     1   --> A_1  D_1  S_1  
     e( 14 - 14) =     17.88623  eV     1   --> B_2  D_4  S_4  
     e( 15 - 15) =     18.21784  eV     1   --> A_1  D_1  S_1  
     e( 16 - 16) =     19.12202  eV     1   --> A_2  D_2  S_2  

 **************************************************************************

 **************************************************************************

                    xk=(   0.49333,   0.00000,   0.00000  )

     Band symmetry, C_2v (mm2)  point group:

     e(  1 -  1) =    -15.86445  eV     1   --> A_1  D_1  S_1  
     e(  2 -  2) =    -10.86174  eV     1   --> B_2  D_4  S_4  
     e(  3 -  3) =     -9.54141  eV     1   --> A_1  D_1  S_1  
     e(  4 -  4) =     -3.43032  eV     1   --> B_1  D_3  S_3  
     e(  5 -  5) =      2.57230  eV     1   --> A_2  D_2  S_2  
     e(  6 -  6) =      8.57607  eV     1   --> A_1  D_1  S_1  
     e(  7 -  7) =      9.79725  eV     1   --> B_1  D_3  S_3  
     e(  8 -  8) =     11.33343  eV     1   --> A_1  D_1  S_1  
     e(  9 -  9) =     11.93087  eV     1   --> A_1  D_1  S_1  
     e( 10 - 10) =     12.64878  eV     1   --> B_2  D_4  S_4  
     e( 11 - 11) =     12.76578  eV     1   --> B_1  D_3  S_3  
     e( 12 - 12) =     16.98608  eV     1   --> B_1  D_3  S_3  
     e( 13 - 13) =     17.63254  eV     1   --> B_2  D_4  S_4  
     e( 14 - 14) =     17.68758  eV     1   --> A_1  D_1  S_1  
     e( 15 - 15) =     18.12060  eV     1   --> A_1  D_1  S_1  
     e( 16 - 16) =     18.80160  eV     1   --> A_2  D_2  S_2  

 **************************************************************************

 **************************************************************************

                    xk=(   0.50667,   0.00000,   0.00000  )

     Band symmetry, C_2v (mm2)  point group:

     e(  1 -  1) =    -15.64282  eV     1   --> A_1  D_1  S_1  
     e(  2 -  2) =    -11.05614  eV     1   --> B_2  D_4  S_4  
     e(  3 -  3) =     -9.73492  eV     1   --> A_1  D_1  S_1  
     e(  4 -  4) =     -3.19198  eV     1   --> B_1  D_3  S_3  
     e(  5 -  5) =      2.30276  eV     1   --> A_2  D_2  S_2  
     e(  6 -  6) =      8.89438  eV     1   --> A_1  D_1  S_1  
     e(  7 -  7) =      9.96377  eV     1   --> B_1  D_3  S_3  
     e(  8 -  8) =     11.63621  eV     1   --> A_1  D_1  S_1  
     e(  9 -  9) =     12.12812  eV     1   --> A_1  D_1  S_1  
     e( 10 - 10) =     12.70710  eV     1   --> B_2  D_4  S_4  
     e( 11 - 11) =     12.72684  eV     1   --> B_1  D_3  S_3  
     e( 12 - 12) =     17.18921  eV     1   --> B_1  D_3  S_3  
     e( 13 - 13) =     17.37871  eV     1   --> B_2  D_4  S_4  
     e( 14 - 14) =     17.48171  eV     1   --> A_1  D_1  S_1  
     e( 15 - 15) =     18.25654  eV     1   --> A_1  D_1  S_1  
     e( 16 - 16) =     18.48780  eV     1   --> A_2  D_2  S_2  

 **************************************************************************

 **************************************************************************

                    xk=(   0.52000,   0.00000,   0.00000  )

     Band symmetry, C_2v (mm2)  point group:

     e(  1 -  1) =    -15.41730  eV     1   --> A_1  D_1  S_1  
     e(  2 -  2) =    -11.24591  eV     1   --> B_2  D_4  S_4  
     e(  3 -  3) =     -9.92399  eV     1   --> A_1  D_1  S_1  
     e(  4 -  4) =     -2.95227  eV     1   --> B_1  D_3  S_3  
     e(  5 -  5) =      2.03852  eV     1   --> A_2  D_2  S_2  
     e(  6 -  6) =      9.21928  eV     1   --> A_1  D_1  S_1  
     e(  7 -  7) =     10.09275  eV     1   --> B_1  D_3  S_3  
     e(  8 -  8) =     11.93396  eV     1   --> A_1  D_1  S_1  
     e(  9 -  9) =     12.33091  eV     1   --> A_1  D_1  S_1  
     e( 10 - 10) =     12.73531  eV     1   --> B_1  D_3  S_3  
     e( 11 - 11) =     12.75947  eV     1   --> B_2  D_4  S_4  
     e( 12 - 12) =     17.12947  eV     1   --> B_2  D_4  S_4  
     e( 13 - 13) =     17.22864  eV     1   --> A_1  D_1  S_1  
     e( 14 - 14) =     17.38960  eV     1   --> B_1  D_3  S_3  
     e( 15 - 15) =     18.18090  eV     1   --> A_2  D_2  S_2  
     e( 16 - 16) =     18.42638  eV     1   --> A_1  D_1  S_1  

 **************************************************************************

 **************************************************************************

                    xk=(   0.53333,   0.00000,   0.00000  )

     Band symmetry, C_2v (mm2)  point group:

     e(  1 -  1) =    -15.18823  eV     1   --> A_1  D_1  S_1  
     e(  2 -  2) =    -11.43096  eV     1   --> B_2  D_4  S_4  
     e(  3 -  3) =    -10.10800  eV     1   --> A_1  D_1  S_1  
     e(  4 -  4) =     -2.71187  eV     1   --> B_1  D_3  S_3  
     e(  5 -  5) =      1.77983  eV     1   --> A_2  D_2  S_2  
     e(  6 -  6) =      9.55024  eV     1   --> A_1  D_1  S_1  
     e(  7 -  7) =     10.17820  eV     1   --> B_1  D_3  S_3  
     e(  8 -  8) =     12.21244  eV     1   --> A_1  D_1  S_1  
     e(  9 -  9) =     12.55032  eV     1   --> A_1  D_1  S_1  
     e( 10 - 10) =     12.80004  eV     1   --> B_1  D_3  S_3  
     e( 11 - 11) =     12.80488  eV     1   --> B_2  D_4  S_4  
     e( 12 - 12) =     16.88817  eV     1   --> B_2  D_4  S_4  
     e( 13 - 13) =     16.97847  eV     1   --> A_1  D_1  S_1  
     e( 14 - 14) =     17.57256  eV     1   --> B_1  D_3  S_3  
     e( 15 - 15) =     17.88113  eV     1   --> A_2  D_2  S_2  
     e( 16 - 16) =     18.56052  eV     1   --> A_1  D_1  S_1  

 **************************************************************************

 **************************************************************************

                    xk=(   0.54667,   0.00000,   0.00000  )

     Band symmetry, C_2v (mm2)  point group:

     e(  1 -  1) =    -14.95609  eV     1   --> A_1  D_1  S_1  
     e(  2 -  2) =    -11.61123  eV     1   --> B_2  D_4  S_4  
     e(  3 -  3) =    -10.28637  eV     1   --> A_1  D_1  S_1  
     e(  4 -  4) =     -2.47150  eV     1   --> B_1  D_3  S_3  
     e(  5 -  5) =      1.52689  eV     1   --> A_2  D_2  S_2  
     e(  6 -  6) =      9.88656  eV     1   --> A_1  D_1  S_1  
     e(  7 -  7) =     10.22000  eV     1   --> B_1  D_3  S_3  
     e(  8 -  8) =     12.44976  eV     1   --> A_1  D_1  S_1  
     e(  9 -  9) =     12.80412  eV     1   --> A_1  D_1  S_1  
     e( 10 - 10) =     12.84212  eV     1   --> B_2  D_4  S_4  
     e( 11 - 11) =     12.92342  eV     1   --> B_1  D_3  S_3  
     e( 12 - 12) =     16.65735  eV     1   --> B_2  D_4  S_4  
     e( 13 - 13) =     16.74147  eV     1   --> A_1  D_1  S_1  
     e( 14 - 14) =     17.58870  eV     1   --> A_2  D_2  S_2  
     e( 15 - 15) =     17.71772  eV     1   --> B_1  D_3  S_3  
     e( 16 - 16) =     18.61830  eV     1   --> A_1  D_1  S_1  

 **************************************************************************

 **************************************************************************

                    xk=(   0.56000,   0.00000,   0.00000  )

     Band symmetry, C_2v (mm2)  point group:

     e(  1 -  1) =    -14.72160  eV     1   --> A_1  D_1  S_1  
     e(  2 -  2) =    -11.78669  eV     1   --> B_2  D_4  S_4  
     e(  3 -  3) =    -10.45857  eV     1   --> A_1  D_1  S_1  
     e(  4 -  4) =     -2.23204  eV     1   --> B_1  D_3  S_3  
     e(  5 -  5) =      1.27982  eV     1   --> A_2  D_2  S_2  
     e(  6 -  6) =     10.22409  eV     1   --> B_1  D_3  S_3  
     e(  7 -  7) =     10.22722  eV     1   --> A_1  D_1  S_1  
     e(  8 -  8) =     12.63725  eV     1   --> A_1  D_1  S_1  
     e(  9 -  9) =     12.86972  eV     1   --> B_2  D_4  S_4  
     e( 10 - 10) =     13.09575  eV     1   --> A_1  D_1  S_1  
     e( 11 - 11) =     13.10080  eV     1   --> B_1  D_3  S_3  
     e( 12 - 12) =     16.43895  eV     1   --> B_2  D_4  S_4  
     e( 13 - 13) =     16.52200  eV     1   --> A_1  D_1  S_1  
     e( 14 - 14) =     17.30377  eV     1   --> A_2  D_2  S_2  
     e( 15 - 15) =     17.80132  eV     1   --> B_1  D_3  S_3  
     e( 16 - 16) =     18.57206  eV     1   --> A_1  D_1  S_1  

 **************************************************************************

 **************************************************************************

                    xk=(   0.57333,   0.00000,   0.00000  )

     Band symmetry, C_2v (mm2)  point group:

     e(  1 -  1) =    -14.48560  eV     1   --> A_1  D_1  S_1  
     e(  2 -  2) =    -11.95711  eV     1   --> B_2  D_4  S_4  
     e(  3 -  3) =    -10.62352  eV     1   --> A_1  D_1  S_1  
     e(  4 -  4) =     -1.99430  eV     1   --> B_1  D_3  S_3  
     e(  5 -  5) =      1.03888  eV     1   --> A_2  D_2  S_2  
     e(  6 -  6) =     10.20054  eV     1   --> B_1  D_3  S_3  
     e(  7 -  7) =     10.57081  eV     1   --> A_1  D_1  S_1  
     e(  8 -  8) =     12.78415  eV     1   --> A_1  D_1  S_1  
     e(  9 -  9) =     12.88625  eV     1   --> B_2  D_4  S_4  
     e( 10 - 10) =     13.32338  eV     1   --> B_1  D_3  S_3  
     e( 11 - 11) =     13.41011  eV     1   --> A_1  D_1  S_1  
     e( 12 - 12) =     16.23467  eV     1   --> B_2  D_4  S_4  
     e( 13 - 13) =     16.32340  eV     1   --> A_1  D_1  S_1  
     e( 14 - 14) =     17.02653  eV     1   --> A_2  D_2  S_2  
     e( 15 - 15) =     17.80829  eV     1   --> B_1  D_3  S_3  
     e( 16 - 16) =     18.43979  eV     1   --> A_1  D_1  S_1  

 **************************************************************************

 **************************************************************************

                    xk=(   0.58667,   0.00000,   0.00000  )

     Band symmetry, C_2v (mm2)  point group:

     e(  1 -  1) =    -14.24941  eV     1   --> A_1  D_1  S_1  
     e(  2 -  2) =    -12.12273  eV     1   --> B_2  D_4  S_4  
     e(  3 -  3) =    -10.78012  eV     1   --> A_1  D_1  S_1  
     e(  4 -  4) =     -1.75935  eV     1   --> B_1  D_3  S_3  
     e(  5 -  5) =      0.80410  eV     1   --> A_2  D_2  S_2  
     e(  6 -  6) =     10.15973  eV     1   --> B_1  D_3  S_3  
     e(  7 -  7) =     10.91527  eV     1   --> A_1  D_1  S_1  
     e(  8 -  8) =     12.89013  eV     1   --> B_2  D_4  S_4  
     e(  9 -  9) =     12.89684  eV     1   --> A_1  D_1  S_1  
     e( 10 - 10) =     13.58096  eV     1   --> B_1  D_3  S_3  
     e( 11 - 11) =     13.73310  eV     1   --> A_1  D_1  S_1  
     e( 12 - 12) =     16.04562  eV     1   --> B_2  D_4  S_4  
     e( 13 - 13) =     16.14840  eV     1   --> A_1  D_1  S_1  
     e( 14 - 14) =     16.75709  eV     1   --> A_2  D_2  S_2  
     e( 15 - 15) =     17.74530  eV     1   --> B_1  D_3  S_3  
     e( 16 - 16) =     18.26382  eV     1   --> A_1  D_1  S_1  

 **************************************************************************

 **************************************************************************

                    xk=(   0.60000,   0.00000,   0.00000  )

     Band symmetry, C_2v (mm2)  point group:

     e(  1 -  1) =    -14.01464  eV     1   --> A_1  D_1  S_1  
     e(  2 -  2) =    -12.28336  eV     1   --> B_2  D_4  S_4  
     e(  3 -  3) =    -10.92670  eV     1   --> A_1  D_1  S_1  
     e(  4 -  4) =     -1.52787  eV     1   --> B_1  D_3  S_3  
     e(  5 -  5) =      0.57579  eV     1   --> A_2  D_2  S_2  
     e(  6 -  6) =     10.11104  eV     1   --> B_1  D_3  S_3  
     e(  7 -  7) =     11.25768  eV     1   --> A_1  D_1  S_1  
     e(  8 -  8) =     12.88015  eV     1   --> B_2  D_4  S_4  
     e(  9 -  9) =     12.97699  eV     1   --> A_1  D_1  S_1  
     e( 10 - 10) =     13.86406  eV     1   --> B_1  D_3  S_3  
     e( 11 - 11) =     14.05505  eV     1   --> A_1  D_1  S_1  
     e( 12 - 12) =     15.87269  eV     1   --> B_2  D_4  S_4  
     e( 13 - 13) =     15.99949  eV     1   --> A_1  D_1  S_1  
     e( 14 - 14) =     16.49556  eV     1   --> A_2  D_2  S_2  
     e( 15 - 15) =     17.63535  eV     1   --> B_1  D_3  S_3  
     e( 16 - 16) =     18.07492  eV     1   --> A_1  D_1  S_1  

 **************************************************************************

 **************************************************************************

                    xk=(   0.61333,   0.00000,   0.00000  )

     Band symmetry, C_2v (mm2)  point group:

     e(  1 -  1) =    -13.78383  eV     1   --> A_1  D_1  S_1  
     e(  2 -  2) =    -12.43887  eV     1   --> B_2  D_4  S_4  
     e(  3 -  3) =    -11.06084  eV     1   --> A_1  D_1  S_1  
     e(  4 -  4) =     -1.30140  eV     1   --> B_1  D_3  S_3  
     e(  5 -  5) =      0.35398  eV     1   --> A_2  D_2  S_2  
     e(  6 -  6) =     10.06168  eV     1   --> B_1  D_3  S_3  
     e(  7 -  7) =     11.59326  eV     1   --> A_1  D_1  S_1  
     e(  8 -  8) =     12.85520  eV     1   --> B_2  D_4  S_4  
     e(  9 -  9) =     13.02453  eV     1   --> A_1  D_1  S_1  
     e( 10 - 10) =     14.16380  eV     1   --> B_1  D_3  S_3  
     e( 11 - 11) =     14.36634  eV     1   --> A_1  D_1  S_1  
     e( 12 - 12) =     15.71604  eV     1   --> B_2  D_4  S_4  
     e( 13 - 13) =     15.87876  eV     1   --> A_1  D_1  S_1  
     e( 14 - 14) =     16.24206  eV     1   --> A_2  D_2  S_2  
     e( 15 - 15) =     17.50247  eV     1   --> B_1  D_3  S_3  
     e( 16 - 16) =     17.89158  eV     1   --> A_1  D_1  S_1  

 **************************************************************************

 **************************************************************************

                    xk=(   0.62667,   0.00000,   0.00000  )

     Band symmetry, C_2v (mm2)  point group:

     e(  1 -  1) =    -13.56080  eV     1   --> A_1  D_1  S_1  
     e(  2 -  2) =    -12.58941  eV     1   --> B_2  D_4  S_4  
     e(  3 -  3) =    -11.17889  eV     1   --> A_1  D_1  S_1  
     e(  4 -  4) =     -1.08088  eV     1   --> B_1  D_3  S_3  
     e(  5 -  5) =      0.13882  eV     1   --> A_2  D_2  S_2  
     e(  6 -  6) =     10.01726  eV     1   --> B_1  D_3  S_3  
     e(  7 -  7) =     11.91452  eV     1   --> A_1  D_1  S_1  
     e(  8 -  8) =     12.81474  eV     1   --> B_2  D_4  S_4  
     e(  9 -  9) =     13.04005  eV     1   --> A_1  D_1  S_1  
     e( 10 - 10) =     14.47142  eV     1   --> B_1  D_3  S_3  
     e( 11 - 11) =     14.65468  eV     1   --> A_1  D_1  S_1  
     e( 12 - 12) =     15.57504  eV     1   --> B_2  D_4  S_4  
     e( 13 - 13) =     15.78711  eV     1   --> A_1  D_1  S_1  
     e( 14 - 14) =     15.99665  eV     1   --> A_2  D_2  S_2  
     e( 15 - 15) =     17.36596  eV     1   --> B_1  D_3  S_3  
     e( 16 - 16) =     17.72993  eV     1   --> A_1  D_1  S_1  

 **************************************************************************

 **************************************************************************

                    xk=(   0.64000,   0.00000,   0.00000  )

     Band symmetry, C_2v (mm2)  point group:

     e(  1 -  1) =    -13.35129  eV     1   --> A_1  D_1  S_1  
     e(  2 -  2) =    -12.73486  eV     1   --> B_2  D_4  S_4  
     e(  3 -  3) =    -11.27527  eV     1   --> A_1  D_1  S_1  
     e(  4 -  4) =     -0.86740  eV     1   --> B_1  D_3  S_3  
     e(  5 -  5) =     -0.06959  eV     1   --> A_2  D_2  S_2  
     e(  6 -  6) =      9.98201  eV     1   --> B_1  D_3  S_3  
     e(  7 -  7) =     12.20881  eV     1   --> A_1  D_1  S_1  
     e(  8 -  8) =     12.75898  eV     1   --> B_2  D_4  S_4  
     e(  9 -  9) =     13.02849  eV     1   --> A_1  D_1  S_1  
     e( 10 - 10) =     14.77632  eV     1   --> B_1  D_3  S_3  
     e( 11 - 11) =     14.90370  eV     1   --> A_1  D_1  S_1  
     e( 12 - 12) =     15.44825  eV     1   --> B_2  D_4  S_4  
     e( 13 - 13) =     15.72508  eV     1   --> A_1  D_1  S_1  
     e( 14 - 14) =     15.75943  eV     1   --> A_2  D_2  S_2  
     e( 15 - 15) =     17.24232  eV     1   --> B_1  D_3  S_3  
     e( 16 - 16) =     17.61051  eV     1   --> A_1  D_1  S_1  

 **************************************************************************

 **************************************************************************

                    xk=(   0.65333,   0.00000,   0.00000  )

     Band symmetry, C_2v (mm2)  point group:

     e(  1 -  1) =    -13.16414  eV     1   --> A_1  D_1  S_1  
     e(  2 -  2) =    -12.87525  eV     1   --> B_2  D_4  S_4  
     e(  3 -  3) =    -11.34153  eV     1   --> A_1  D_1  S_1  
     e(  4 -  4) =     -0.66210  eV     1   --> B_1  D_3  S_3  
     e(  5 -  5) =     -0.27123  eV     1   --> A_2  D_2  S_2  
     e(  6 -  6) =      9.95914  eV     1   --> B_1  D_3  S_3  
     e(  7 -  7) =     12.45320  eV     1   --> A_1  D_1  S_1  
     e(  8 -  8) =     12.68885  eV     1   --> B_2  D_4  S_4  
     e(  9 -  9) =     13.00168  eV     1   --> A_1  D_1  S_1  
     e( 10 - 10) =     15.06337  eV     1   --> B_1  D_3  S_3  
     e( 11 - 11) =     15.09669  eV     1   --> A_1  D_1  S_1  
     e( 12 - 12) =     15.33354  eV     1   --> B_2  D_4  S_4  
     e( 13 - 13) =     15.53047  eV     1   --> A_2  D_2  S_2  
     e( 14 - 14) =     15.69074  eV     1   --> A_1  D_1  S_1  
     e( 15 - 15) =     17.14969  eV     1   --> B_1  D_3  S_3  
     e( 16 - 16) =     17.56018  eV     1   --> A_1  D_1  S_1  

 **************************************************************************

 **************************************************************************

                    xk=(   0.66667,   0.00000,   0.00000  )

     zone border point and non-symmorphic group 
     symmetry decomposition not available

 **************************************************************************

 **************************************************************************

                    xk=(   0.66333,   0.00577,   0.00000  )

     zone border point and non-symmorphic group 
     symmetry decomposition not available

 **************************************************************************

 **************************************************************************

                    xk=(   0.66000,   0.01155,   0.00000  )

     zone border point and non-symmorphic group 
     symmetry decomposition not available

 **************************************************************************

 **************************************************************************

                    xk=(   0.65667,   0.01732,   0.00000  )

     zone border point and non-symmorphic group 
     symmetry decomposition not available

 **************************************************************************

 **************************************************************************

                    xk=(   0.65333,   0.02309,   0.00000  )

     zone border point and non-symmorphic group 
     symmetry decomposition not available

 **************************************************************************

 **************************************************************************

                    xk=(   0.65000,   0.02887,   0.00000  )

     zone border point and non-symmorphic group 
     symmetry decomposition not available

 **************************************************************************

 **************************************************************************

                    xk=(   0.64667,   0.03464,   0.00000  )

     zone border point and non-symmorphic group 
     symmetry decomposition not available

 **************************************************************************

 **************************************************************************

                    xk=(   0.64333,   0.04041,   0.00000  )

     zone border point and non-symmorphic group 
     symmetry decomposition not available

 **************************************************************************

 **************************************************************************

                    xk=(   0.64000,   0.04619,   0.00000  )

     zone border point and non-symmorphic group 
     symmetry decomposition not available

 **************************************************************************

 **************************************************************************

                    xk=(   0.63667,   0.05196,   0.00000  )

     zone border point and non-symmorphic group 
     symmetry decomposition not available

 **************************************************************************

 **************************************************************************

                    xk=(   0.63333,   0.05774,   0.00000  )

     zone border point and non-symmorphic group 
     symmetry decomposition not available

 **************************************************************************

 **************************************************************************

                    xk=(   0.63000,   0.06351,   0.00000  )

     zone border point and non-symmorphic group 
     symmetry decomposition not available

 **************************************************************************

 **************************************************************************

                    xk=(   0.62667,   0.06928,   0.00000  )

     zone border point and non-symmorphic group 
     symmetry decomposition not available

 **************************************************************************

 **************************************************************************

                    xk=(   0.62333,   0.07506,   0.00000  )

     zone border point and non-symmorphic group 
     symmetry decomposition not available

 **************************************************************************

 **************************************************************************

                    xk=(   0.62000,   0.08083,   0.00000  )

     zone border point and non-symmorphic group 
     symmetry decomposition not available

 **************************************************************************

 **************************************************************************

                    xk=(   0.61667,   0.08660,   0.00000  )

     zone border point and non-symmorphic group 
     symmetry decomposition not available

 **************************************************************************

 **************************************************************************

                    xk=(   0.61333,   0.09238,   0.00000  )

     zone border point and non-symmorphic group 
     symmetry decomposition not available

 **************************************************************************

 **************************************************************************

                    xk=(   0.61000,   0.09815,   0.00000  )

     zone border point and non-symmorphic group 
     symmetry decomposition not available

 **************************************************************************

 **************************************************************************

                    xk=(   0.60667,   0.10392,   0.00000  )

     zone border point and non-symmorphic group 
     symmetry decomposition not available

 **************************************************************************

 **************************************************************************

                    xk=(   0.60333,   0.10970,   0.00000  )

     zone border point and non-symmorphic group 
     symmetry decomposition not available

 **************************************************************************

 **************************************************************************

                    xk=(   0.60000,   0.11547,   0.00000  )

     zone border point and non-symmorphic group 
     symmetry decomposition not available

 **************************************************************************

 **************************************************************************

                    xk=(   0.59667,   0.12124,   0.00000  )

     zone border point and non-symmorphic group 
     symmetry decomposition not available

 **************************************************************************

 **************************************************************************

                    xk=(   0.59333,   0.12702,   0.00000  )

     zone border point and non-symmorphic group 
     symmetry decomposition not available

 **************************************************************************

 **************************************************************************

                    xk=(   0.59000,   0.13279,   0.00000  )

     zone border point and non-symmorphic group 
     symmetry decomposition not available

 **************************************************************************

 **************************************************************************

                    xk=(   0.58667,   0.13856,   0.00000  )

     zone border point and non-symmorphic group 
     symmetry decomposition not available

 **************************************************************************

 **************************************************************************

                    xk=(   0.58333,   0.14434,   0.00000  )

     zone border point and non-symmorphic group 
     symmetry decomposition not available

 **************************************************************************

 **************************************************************************

                    xk=(   0.58000,   0.15011,   0.00000  )

     zone border point and non-symmorphic group 
     symmetry decomposition not available

 **************************************************************************

 **************************************************************************

                    xk=(   0.57667,   0.15588,   0.00000  )

     zone border point and non-symmorphic group 
     symmetry decomposition not available

 **************************************************************************

 **************************************************************************

                    xk=(   0.57333,   0.16166,   0.00000  )

     zone border point and non-symmorphic group 
     symmetry decomposition not available

 **************************************************************************

 **************************************************************************

                    xk=(   0.57000,   0.16743,   0.00000  )

     zone border point and non-symmorphic group 
     symmetry decomposition not available

 **************************************************************************

 **************************************************************************

                    xk=(   0.56667,   0.17320,   0.00000  )

     zone border point and non-symmorphic group 
     symmetry decomposition not available

 **************************************************************************

 **************************************************************************

                    xk=(   0.56333,   0.17898,   0.00000  )

     zone border point and non-symmorphic group 
     symmetry decomposition not available

 **************************************************************************

 **************************************************************************

                    xk=(   0.56000,   0.18475,   0.00000  )

     zone border point and non-symmorphic group 
     symmetry decomposition not available

 **************************************************************************

 **************************************************************************

                    xk=(   0.55667,   0.19053,   0.00000  )

     zone border point and non-symmorphic group 
     symmetry decomposition not available

 **************************************************************************

 **************************************************************************

                    xk=(   0.55333,   0.19630,   0.00000  )

     zone border point and non-symmorphic group 
     symmetry decomposition not available

 **************************************************************************

 **************************************************************************

                    xk=(   0.55000,   0.20207,   0.00000  )

     zone border point and non-symmorphic group 
     symmetry decomposition not available

 **************************************************************************

 **************************************************************************

                    xk=(   0.54667,   0.20785,   0.00000  )

     zone border point and non-symmorphic group 
     symmetry decomposition not available

 **************************************************************************

 **************************************************************************

[...]
     e(  5 -  5) =      3.18291  eV     1   --> A_1  D_1  S_1  
     e(  6 -  6) =      4.97973  eV     1   --> B_2  D_4  S_4  
     e(  7 -  7) =      5.99955  eV     1   --> A_1  D_1  S_1  
     e(  8 -  8) =      8.14416  eV     1   --> A_1  D_1  S_1  
     e(  9 -  9) =      9.69989  eV     1   --> B_1  D_3  S_3  
     e( 10 - 10) =      9.98023  eV     1   --> B_2  D_4  S_4  
     e( 11 - 11) =     11.04233  eV     1   --> B_2  D_4  S_4  
     e( 12 - 12) =     13.09518  eV     1   --> A_1  D_1  S_1  
     e( 13 - 13) =     13.78618  eV     1   --> A_1  D_1  S_1  
     e( 14 - 14) =     20.19675  eV     1   --> B_2  D_4  S_4  
     e( 15 - 15) =     23.21864  eV     1   --> A_1  D_1  S_1  
     e( 16 - 16) =     23.75275  eV     1   --> A_1  D_1  S_1  

 **************************************************************************

 **************************************************************************

                    xk=(   0.12000,   0.06928,   0.00000  )

     Band symmetry, C_2v (mm2)  point group:

     e(  1 -  1) =    -19.76831  eV     1   --> A_1  D_1  S_1  
     e(  2 -  2) =     -7.95473  eV     1   --> B_2  D_4  S_4  
     e(  3 -  3) =     -4.78988  eV     1   --> A_1  D_1  S_1  
     e(  4 -  4) =     -4.19318  eV     1   --> B_1  D_3  S_3  
     e(  5 -  5) =      3.10084  eV     1   --> A_1  D_1  S_1  
     e(  6 -  6) =      4.89881  eV     1   --> B_2  D_4  S_4  
     e(  7 -  7) =      5.91860  eV     1   --> A_1  D_1  S_1  
     e(  8 -  8) =      8.14216  eV     1   --> A_1  D_1  S_1  
     e(  9 -  9) =      9.46964  eV     1   --> B_1  D_3  S_3  
     e( 10 - 10) =     10.17072  eV     1   --> B_2  D_4  S_4  
     e( 11 - 11) =     10.96674  eV     1   --> B_2  D_4  S_4  
     e( 12 - 12) =     13.01540  eV     1   --> A_1  D_1  S_1  
     e( 13 - 13) =     13.68469  eV     1   --> A_1  D_1  S_1  
     e( 14 - 14) =     20.17998  eV     1   --> B_2  D_4  S_4  
     e( 15 - 15) =     23.10906  eV     1   --> A_1  D_1  S_1  
     e( 16 - 16) =     23.64272  eV     1   --> A_1  D_1  S_1  

 **************************************************************************

 **************************************************************************

                    xk=(   0.11000,   0.06351,   0.00000  )

     Band symmetry, C_2v (mm2)  point group:

     e(  1 -  1) =    -19.82327  eV     1   --> A_1  D_1  S_1  
     e(  2 -  2) =     -8.02142  eV     1   --> B_2  D_4  S_4  
     e(  3 -  3) =     -4.60136  eV     1   --> A_1  D_1  S_1  
     e(  4 -  4) =     -4.09648  eV     1   --> B_1  D_3  S_3  
     e(  5 -  5) =      3.02536  eV     1   --> A_1  D_1  S_1  
     e(  6 -  6) =      4.82428  eV     1   --> B_2  D_4  S_4  
     e(  7 -  7) =      5.84413  eV     1   --> A_1  D_1  S_1  
     e(  8 -  8) =      8.13717  eV     1   --> A_1  D_1  S_1  
     e(  9 -  9) =      9.25342  eV     1   --> B_1  D_3  S_3  
     e( 10 - 10) =     10.34873  eV     1   --> B_2  D_4  S_4  
     e( 11 - 11) =     10.89713  eV     1   --> B_2  D_4  S_4  
     e( 12 - 12) =     12.94176  eV     1   --> A_1  D_1  S_1  
     e( 13 - 13) =     13.59150  eV     1   --> A_1  D_1  S_1  
     e( 14 - 14) =     20.15915  eV     1   --> B_2  D_4  S_4  
     e( 15 - 15) =     22.99232  eV     1   --> A_1  D_1  S_1  
     e( 16 - 16) =     23.54768  eV     1   --> A_1  D_1  S_1  

 **************************************************************************

 **************************************************************************

                    xk=(   0.10000,   0.05773,   0.00000  )

     Band symmetry, C_2v (mm2)  point group:

     e(  1 -  1) =    -19.87354  eV     1   --> A_1  D_1  S_1  
     e(  2 -  2) =     -8.08240  eV     1   --> B_2  D_4  S_4  
     e(  3 -  3) =     -4.42468  eV     1   --> A_1  D_1  S_1  
     e(  4 -  4) =     -4.00478  eV     1   --> B_1  D_3  S_3  
     e(  5 -  5) =      2.95642  eV     1   --> A_1  D_1  S_1  
     e(  6 -  6) =      4.75617  eV     1   --> B_2  D_4  S_4  
     e(  7 -  7) =      5.77611  eV     1   --> A_1  D_1  S_1  
     e(  8 -  8) =      8.12933  eV     1   --> A_1  D_1  S_1  
     e(  9 -  9) =      9.05210  eV     1   --> B_1  D_3  S_3  
     e( 10 - 10) =     10.51392  eV     1   --> B_2  D_4  S_4  
     e( 11 - 11) =     10.83368  eV     1   --> B_2  D_4  S_4  
     e( 12 - 12) =     12.87423  eV     1   --> A_1  D_1  S_1  
     e( 13 - 13) =     13.50697  eV     1   --> A_1  D_1  S_1  
     e( 14 - 14) =     20.13601  eV     1   --> B_2  D_4  S_4  
     e( 15 - 15) =     22.87231  eV     1   --> A_1  D_1  S_1  
     e( 16 - 16) =     23.46666  eV     1   --> A_1  D_1  S_1  

 **************************************************************************

 **************************************************************************

                    xk=(   0.09000,   0.05196,   0.00000  )

     Band symmetry, C_2v (mm2)  point group:

     e(  1 -  1) =    -19.91904  eV     1   --> A_1  D_1  S_1  
     e(  2 -  2) =     -8.13765  eV     1   --> B_2  D_4  S_4  
     e(  3 -  3) =     -4.26084  eV     1   --> A_1  D_1  S_1  
     e(  4 -  4) =     -3.91878  eV     1   --> B_1  D_3  S_3  
     e(  5 -  5) =      2.89405  eV     1   --> A_1  D_1  S_1  
     e(  6 -  6) =      4.69451  eV     1   --> B_2  D_4  S_4  
     e(  7 -  7) =      5.71457  eV     1   --> A_1  D_1  S_1  
     e(  8 -  8) =      8.11923  eV     1   --> A_1  D_1  S_1  
     e(  9 -  9) =      8.86603  eV     1   --> B_1  D_3  S_3  
     e( 10 - 10) =     10.66443  eV     1   --> B_2  D_4  S_4  
     e( 11 - 11) =     10.77752  eV     1   --> B_2  D_4  S_4  
     e( 12 - 12) =     12.81289  eV     1   --> A_1  D_1  S_1  
     e( 13 - 13) =     13.43120  eV     1   --> A_1  D_1  S_1  
     e( 14 - 14) =     20.11196  eV     1   --> B_2  D_4  S_4  
     e( 15 - 15) =     22.75337  eV     1   --> A_1  D_1  S_1  
     e( 16 - 16) =     23.39787  eV     1   --> A_1  D_1  S_1  

 **************************************************************************

 **************************************************************************

                    xk=(   0.08000,   0.04619,   0.00000  )

     Band symmetry, C_2v (mm2)  point group:

     e(  1 -  1) =    -19.95977  eV     1   --> A_1  D_1  S_1  
     e(  2 -  2) =     -8.18712  eV     1   --> B_2  D_4  S_4  
     e(  3 -  3) =     -4.11073  eV     1   --> A_1  D_1  S_1  
     e(  4 -  4) =     -3.83905  eV     1   --> B_1  D_3  S_3  
     e(  5 -  5) =      2.83826  eV     1   --> A_1  D_1  S_1  
     e(  6 -  6) =      4.63930  eV     1   --> B_2  D_4  S_4  
     e(  7 -  7) =      5.65952  eV     1   --> A_1  D_1  S_1  
     e(  8 -  8) =      8.10745  eV     1   --> A_1  D_1  S_1  
     e(  9 -  9) =      8.69710  eV     1   --> B_1  D_3  S_3  
     e( 10 - 10) =     10.71984  eV     1   --> B_2  D_4  S_4  
     e( 11 - 11) =     10.80855  eV     1   --> B_2  D_4  S_4  
     e( 12 - 12) =     12.75781  eV     1   --> A_1  D_1  S_1  
     e( 13 - 13) =     13.36422  eV     1   --> A_1  D_1  S_1  
     e( 14 - 14) =     20.08810  eV     1   --> B_2  D_4  S_4  
     e( 15 - 15) =     22.63931  eV     1   --> A_1  D_1  S_1  
     e( 16 - 16) =     23.33945  eV     1   --> A_1  D_1  S_1  

 **************************************************************************

 **************************************************************************

                    xk=(   0.07000,   0.04041,   0.00000  )

     Band symmetry, C_2v (mm2)  point group:

     e(  1 -  1) =    -19.99572  eV     1   --> A_1  D_1  S_1  
     e(  2 -  2) =     -8.23085  eV     1   --> B_2  D_4  S_4  
     e(  3 -  3) =     -3.97560  eV     1   --> A_1  D_1  S_1  
     e(  4 -  4) =     -3.76649  eV     1   --> B_1  D_3  S_3  
     e(  5 -  5) =      2.78902  eV     1   --> A_1  D_1  S_1  
     e(  6 -  6) =      4.59056  eV     1   --> B_2  D_4  S_4  
     e(  7 -  7) =      5.61095  eV     1   --> A_1  D_1  S_1  
     e(  8 -  8) =      8.09418  eV     1   --> A_1  D_1  S_1  
     e(  9 -  9) =      8.54556  eV     1   --> B_1  D_3  S_3  
     e( 10 - 10) =     10.67625  eV     1   --> B_2  D_4  S_4  
     e( 11 - 11) =     10.92986  eV     1   --> B_2  D_4  S_4  
     e( 12 - 12) =     12.70905  eV     1   --> A_1  D_1  S_1  
     e( 13 - 13) =     13.30574  eV     1   --> A_1  D_1  S_1  
     e( 14 - 14) =     20.06529  eV     1   --> B_2  D_4  S_4  
     e( 15 - 15) =     22.53312  eV     1   --> A_1  D_1  S_1  
     e( 16 - 16) =     23.28992  eV     1   --> A_1  D_1  S_1  

 **************************************************************************

 **************************************************************************

                    xk=(   0.06000,   0.03464,   0.00000  )

     Band symmetry, C_2v (mm2)  point group:

     e(  1 -  1) =    -20.02688  eV     1   --> A_1  D_1  S_1  
     e(  2 -  2) =     -8.26875  eV     1   --> B_2  D_4  S_4  
     e(  3 -  3) =     -3.85605  eV     1   --> A_1  D_1  S_1  
     e(  4 -  4) =     -3.70178  eV     1   --> B_1  D_3  S_3  
     e(  5 -  5) =      2.74636  eV     1   --> A_1  D_1  S_1  
     e(  6 -  6) =      4.54830  eV     1   --> B_2  D_4  S_4  
     e(  7 -  7) =      5.56887  eV     1   --> A_1  D_1  S_1  
     e(  8 -  8) =      8.08104  eV     1   --> A_1  D_1  S_1  
     e(  9 -  9) =      8.41236  eV     1   --> B_1  D_3  S_3  
     e( 10 - 10) =     10.63694  eV     1   --> B_2  D_4  S_4  
     e( 11 - 11) =     11.03794  eV     1   --> B_2  D_4  S_4  
     e( 12 - 12) =     12.66666  eV     1   --> A_1  D_1  S_1  
     e( 13 - 13) =     13.25594  eV     1   --> A_1  D_1  S_1  
     e( 14 - 14) =     20.04430  eV     1   --> B_2  D_4  S_4  
     e( 15 - 15) =     22.43734  eV     1   --> A_1  D_1  S_1  
     e( 16 - 16) =     23.24828  eV     1   --> A_1  D_1  S_1  

 **************************************************************************

 **************************************************************************

                    xk=(   0.05000,   0.02887,   0.00000  )

     Band symmetry, C_2v (mm2)  point group:

     e(  1 -  1) =    -20.05321  eV     1   --> A_1  D_1  S_1  
     e(  2 -  2) =     -8.30084  eV     1   --> B_2  D_4  S_4  
     e(  3 -  3) =     -3.75308  eV     1   --> A_1  D_1  S_1  
     e(  4 -  4) =     -3.64548  eV     1   --> B_1  D_3  S_3  
     e(  5 -  5) =      2.71028  eV     1   --> A_1  D_1  S_1  
     e(  6 -  6) =      4.51253  eV     1   --> B_2  D_4  S_4  
     e(  7 -  7) =      5.53329  eV     1   --> A_1  D_1  S_1  
     e(  8 -  8) =      8.06849  eV     1   --> A_1  D_1  S_1  
     e(  9 -  9) =      8.29824  eV     1   --> B_1  D_3  S_3  
     e( 10 - 10) =     10.60347  eV     1   --> B_2  D_4  S_4  
     e( 11 - 11) =     11.13055  eV     1   --> B_2  D_4  S_4  
     e( 12 - 12) =     12.63075  eV     1   --> A_1  D_1  S_1  
     e( 13 - 13) =     13.21440  eV     1   --> A_1  D_1  S_1  
     e( 14 - 14) =     20.02567  eV     1   --> B_2  D_4  S_4  
     e( 15 - 15) =     22.35371  eV     1   --> A_1  D_1  S_1  
     e( 16 - 16) =     23.21391  eV     1   --> A_1  D_1  S_1  

 **************************************************************************

 **************************************************************************

                    xk=(   0.04000,   0.02309,   0.00000  )

     Band symmetry, C_2v (mm2)  point group:

     e(  1 -  1) =    -20.07480  eV     1   --> A_1  D_1  S_1  
     e(  2 -  2) =     -8.32711  eV     1   --> B_2  D_4  S_4  
     e(  3 -  3) =     -3.66766  eV     1   --> A_1  D_1  S_1  
     e(  4 -  4) =     -3.59858  eV     1   --> B_1  D_3  S_3  
     e(  5 -  5) =      2.68075  eV     1   --> A_1  D_1  S_1  
     e(  6 -  6) =      4.48326  eV     1   --> B_2  D_4  S_4  
     e(  7 -  7) =      5.50418  eV     1   --> A_1  D_1  S_1  
     e(  8 -  8) =      8.05691  eV     1   --> A_1  D_1  S_1  
     e(  9 -  9) =      8.20380  eV     1   --> B_1  D_3  S_3  
     e( 10 - 10) =     10.57602  eV     1   --> B_2  D_4  S_4  
     e( 11 - 11) =     11.20707  eV     1   --> B_2  D_4  S_4  
     e( 12 - 12) =     12.60127  eV     1   --> A_1  D_1  S_1  
     e( 13 - 13) =     13.18089  eV     1   --> A_1  D_1  S_1  
     e( 14 - 14) =     20.00986  eV     1   --> B_2  D_4  S_4  
     e( 15 - 15) =     22.28360  eV     1   --> A_1  D_1  S_1  
     e( 16 - 16) =     23.18615  eV     1   --> A_1  D_1  S_1  

 **************************************************************************

 **************************************************************************

                    xk=(   0.03000,   0.01732,   0.00000  )

     Band symmetry, C_2v (mm2)  point group:

     e(  1 -  1) =    -20.09158  eV     1   --> A_1  D_1  S_1  
     e(  2 -  2) =     -8.34746  eV     1   --> B_2  D_4  S_4  
     e(  3 -  3) =     -3.60044  eV     1   --> A_1  D_1  S_1  
     e(  4 -  4) =     -3.56145  eV     1   --> B_1  D_3  S_3  
     e(  5 -  5) =      2.65780  eV     1   --> A_1  D_1  S_1  
     e(  6 -  6) =      4.46050  eV     1   --> B_2  D_4  S_4  
     e(  7 -  7) =      5.48155  eV     1   --> A_1  D_1  S_1  
     e(  8 -  8) =      8.04715  eV     1   --> A_1  D_1  S_1  
     e(  9 -  9) =      8.12970  eV     1   --> B_1  D_3  S_3  
     e( 10 - 10) =     10.55467  eV     1   --> B_2  D_4  S_4  
     e( 11 - 11) =     11.26697  eV     1   --> B_2  D_4  S_4  
     e( 12 - 12) =     12.57836  eV     1   --> A_1  D_1  S_1  
     e( 13 - 13) =     13.15504  eV     1   --> A_1  D_1  S_1  
     e( 14 - 14) =     19.99729  eV     1   --> B_2  D_4  S_4  
     e( 15 - 15) =     22.22827  eV     1   --> A_1  D_1  S_1  
     e( 16 - 16) =     23.16493  eV     1   --> A_1  D_1  S_1  

 **************************************************************************

 **************************************************************************

                    xk=(   0.02000,   0.01155,   0.00000  )

     Band symmetry, C_2v (mm2)  point group:

     e(  1 -  1) =    -20.10360  eV     1   --> A_1  D_1  S_1  
     e(  2 -  2) =     -8.36209  eV     1   --> B_2  D_4  S_4  
     e(  3 -  3) =     -3.55201  eV     1   --> A_1  D_1  S_1  
     e(  4 -  4) =     -3.53466  eV     1   --> B_1  D_3  S_3  
     e(  5 -  5) =      2.64140  eV     1   --> A_1  D_1  S_1  
     e(  6 -  6) =      4.44423  eV     1   --> B_2  D_4  S_4  
     e(  7 -  7) =      5.46538  eV     1   --> A_1  D_1  S_1  
     e(  8 -  8) =      8.03972  eV     1   --> A_1  D_1  S_1  
     e(  9 -  9) =      8.07625  eV     1   --> B_1  D_3  S_3  
     e( 10 - 10) =     10.53938  eV     1   --> B_2  D_4  S_4  
     e( 11 - 11) =     11.31005  eV     1   --> B_2  D_4  S_4  
     e( 12 - 12) =     12.56193  eV     1   --> A_1  D_1  S_1  
     e( 13 - 13) =     13.13680  eV     1   --> A_1  D_1  S_1  
     e( 14 - 14) =     19.98807  eV     1   --> B_2  D_4  S_4  
     e( 15 - 15) =     22.18806  eV     1   --> A_1  D_1  S_1  
     e( 16 - 16) =     23.14978  eV     1   --> A_1  D_1  S_1  

 **************************************************************************

 **************************************************************************

                    xk=(   0.01000,   0.00577,   0.00000  )

     Band symmetry, C_2v (mm2)  point group:

     e(  1 -  1) =    -20.11078  eV     1   --> A_1  D_1  S_1  
     e(  2 -  2) =     -8.37086  eV     1   --> B_2  D_4  S_4  
     e(  3 -  3) =     -3.52277  eV     1   --> A_1  D_1  S_1  
     e(  4 -  4) =     -3.51832  eV     1   --> B_1  D_3  S_3  
     e(  5 -  5) =      2.63156  eV     1   --> A_1  D_1  S_1  
     e(  6 -  6) =      4.43447  eV     1   --> B_2  D_4  S_4  
     e(  7 -  7) =      5.45569  eV     1   --> A_1  D_1  S_1  
     e(  8 -  8) =      8.03512  eV     1   --> A_1  D_1  S_1  
     e(  9 -  9) =      8.04414  eV     1   --> B_1  D_3  S_3  
     e( 10 - 10) =     10.53020  eV     1   --> B_2  D_4  S_4  
     e( 11 - 11) =     11.33599  eV     1   --> B_2  D_4  S_4  
     e( 12 - 12) =     12.55209  eV     1   --> A_1  D_1  S_1  
     e( 13 - 13) =     13.12594  eV     1   --> A_1  D_1  S_1  
     e( 14 - 14) =     19.98246  eV     1   --> B_2  D_4  S_4  
     e( 15 - 15) =     22.16372  eV     1   --> A_1  D_1  S_1  
     e( 16 - 16) =     23.14079  eV     1   --> A_1  D_1  S_1  

 **************************************************************************

 **************************************************************************

                    xk=(   0.00000,   0.00000,   0.00000  )

     point group D_6h(6/mmm)
     there are 12 classes
     the character table:

       E     2C6   2C3   C2    3C2'  3C2'' i     2S3   2S6   s_h   3s_d  3s_v 
A_1g   1.00  1.00  1.00  1.00  1.00  1.00  1.00  1.00  1.00  1.00  1.00  1.00
A_2g   1.00  1.00  1.00  1.00 -1.00 -1.00  1.00  1.00  1.00  1.00 -1.00 -1.00
B_1g   1.00 -1.00  1.00 -1.00  1.00 -1.00  1.00 -1.00  1.00 -1.00  1.00 -1.00
B_2g   1.00 -1.00  1.00 -1.00 -1.00  1.00  1.00 -1.00  1.00 -1.00 -1.00  1.00
E_1g   2.00  1.00 -1.00 -2.00  0.00  0.00  2.00  1.00 -1.00 -2.00  0.00  0.00
E_2g   2.00 -1.00 -1.00  2.00  0.00  0.00  2.00 -1.00 -1.00  2.00  0.00  0.00
A_1u   1.00  1.00  1.00  1.00  1.00  1.00 -1.00 -1.00 -1.00 -1.00 -1.00 -1.00
A_2u   1.00  1.00  1.00  1.00 -1.00 -1.00 -1.00 -1.00 -1.00 -1.00  1.00  1.00
B_1u   1.00 -1.00  1.00 -1.00  1.00 -1.00 -1.00  1.00 -1.00  1.00 -1.00  1.00
B_2u   1.00 -1.00  1.00 -1.00 -1.00  1.00 -1.00  1.00 -1.00  1.00  1.00 -1.00
E_1u   2.00  1.00 -1.00 -2.00  0.00  0.00 -2.00 -1.00  1.00  2.00  0.00  0.00
E_2u   2.00 -1.00 -1.00  2.00  0.00  0.00 -2.00  1.00  1.00 -2.00  0.00  0.00

     the symmetry operations in each class and the name of the first element:

     E        1
                                                                 
     2C6      5    6
                                                                 
     2C3      7    8
                                                                 
     C2       2
                                                                 
     3C2'     4   12   11
                                                                 
     3C2''    3    9   10
                                                                 
     i       13
                                                                 
     2S3     17   18
                                                                 
     2S6     19   20
                                                                 
     s_h     14
                                                                 
     3s_d    16   24   23
                                                                 
     3s_v    15   21   22
                                                                 

     Band symmetry, D_6h(6/mmm) point group:

     e(  1 -  1) =    -20.11322  eV     1   --> A_1g           
     e(  2 -  2) =     -8.37379  eV     1   --> A_2u           
     e(  3 -  4) =     -3.51304  eV     2   --> E_2g           
     e(  5 -  5) =      2.62827  eV     1   --> A_1g           
     e(  6 -  6) =      4.43121  eV     1   --> A_2u           
     e(  7 -  7) =      5.45244  eV     1   --> A_1g           
     e(  8 -  9) =      8.03332  eV     2   --> E_1u           
     e( 10 - 10) =     10.52714  eV     1   --> A_2u           
     e( 11 - 11) =     11.34465  eV     1   --> B_1g           
     e( 12 - 12) =     12.54875  eV     1   --> A_1g           
     e( 13 - 13) =     13.12233  eV     1   --> B_2u           
     e( 14 - 14) =     19.98058  eV     1   --> A_2u           
     e( 15 - 15) =     22.15551  eV     1   --> A_1g           
     e( 16 - 16) =     23.13767  eV     1   --> A_1g           

 **************************************************************************

     BANDS        :     8.81s CPU         9.37s WALL


   This run was terminated on:  20:29:58  11Jan2020            

=------------------------------------------------------------------------------=
   JOB DONE.
=------------------------------------------------------------------------------=
